<?xml version="1.0"?>
<VTKFile type="UnstructuredGrid"  version="0.1"  >
<UnstructuredGrid>
<Piece  NumberOfPoints="15540" NumberOfCells="30546">
<Points>
<DataArray  type="Float64"  NumberOfComponents="3"  format="ascii">0 0 0  -0.5 -0.5 0  0.5 -0.5 0  0.5 0 0  0.5 0.5 0  -0.5 0.5 0  -0.5 0.0001 0  -0.5 -0.0001 0  0.5 0.1 0  0.5 -0.1 0  -0.5 -0.1 0  -0.5 0.1 0  -0.4900000000000277 -0.5 0  -0.4800000000000555 -0.5 0  -0.4700000000000832 -0.5 0  -0.4600000000001109 -0.5 0  -0.4500000000001387 -0.5 0  -0.4400000000001664 -0.5 0  -0.4300000000001942 -0.5 0  -0.4200000000002219 -0.5 0  -0.4100000000002497 -0.5 0  -0.4000000000002774 -0.5 0  -0.3900000000003052 -0.5 0  -0.3800000000003328 -0.5 0  -0.3700000000003606 -0.5 0  -0.3600000000003883 -0.5 0  -0.3500000000004161 -0.5 0  -0.3400000000004438 -0.5 0  -0.3300000000004716 -0.5 0  -0.3200000000004993 -0.5 0  -0.3100000000005271 -0.5 0  -0.3000000000005548 -0.5 0  -0.2900000000005825 -0.5 0  -0.2800000000006103 -0.5 0  -0.2700000000006381 -0.5 0  -0.2600000000006658 -0.5 0  -0.2500000000006935 -0.5 0  -0.2400000000007212 -0.5 0  -0.230000000000749 -0.5 0  -0.2200000000007767 -0.5 0  -0.2100000000008044 -0.5 0  -0.2000000000008322 -0.5 0  -0.19000000000086 -0.5 0  -0.1800000000008877 -0.5 0  -0.1700000000009154 -0.5 0  -0.1600000000009431 -0.5 0  -0.1500000000009709 -0.5 0  -0.1400000000009986 -0.5 0  -0.1300000000010264 -0.5 0  -0.1200000000010541 -0.5 0  -0.1100000000010818 -0.5 0  -0.1000000000011096 -0.5 0  -0.09000000000113734 -0.5 0  -0.08000000000116503 -0.5 0  -0.07000000000119283 -0.5 0  -0.06000000000122058 -0.5 0  -0.05000000000124827 -0.5 0  -0.04000000000127607 -0.5 0  -0.03000000000130376 -0.5 0  -0.02000000000133151 -0.5 0  -0.01000000000135925 -0.5 0  -1.376121439022882e-12 -0.5 0  0.009999999998640763 -0.5 0  0.01999999999866864 -0.5 0  0.02999999999869629 -0.5 0  0.03999999999872406 -0.5 0  0.04999999999875182 -0.5 0  0.05999999999877947 -0.5 0  0.06999999999880724 -0.5 0  0.079999999998835 -0.5 0  0.08999999999886266 -0.5 0  0.09999999999889042 -0.5 0  0.1099999999989182 -0.5 0  0.1199999999989459 -0.5 0  0.1299999999989737 -0.5 0  0.1399999999990014 -0.5 0  0.1499999999990291 -0.5 0  0.1599999999990568 -0.5 0  0.1699999999990847 -0.5 0  0.1799999999991124 -0.5 0  0.1899999999991401 -0.5 0  0.1999999999991678 -0.5 0  0.2099999999991955 -0.5 0  0.2199999999992234 -0.5 0  0.2299999999992511 -0.5 0  0.2399999999992788 -0.5 0  0.2499999999993066 -0.5 0  0.2599999999993342 -0.5 0  0.269999999999362 -0.5 0  0.2799999999993897 -0.5 0  0.2899999999994175 -0.5 0  0.2999999999994452 -0.5 0  0.3099999999994729 -0.5 0  0.3199999999995007 -0.5 0  0.3299999999995284 -0.5 0  0.3399999999995562 -0.5 0  0.3499999999995839 -0.5 0  0.3599999999996116 -0.5 0  0.3699999999996393 -0.5 0  0.379999999999667 -0.5 0  0.3899999999996949 -0.5 0  0.3999999999997226 -0.5 0  0.4099999999997503 -0.5 0  0.419999999999778 -0.5 0  0.4299999999998058 -0.5 0  0.4399999999998336 -0.5 0  0.4499999999998613 -0.5 0  0.4599999999998891 -0.5 0  0.4699999999999167 -0.5 0  0.4799999999999445 -0.5 0  0.4899999999999722 -0.5 0  0.5 -0.4902110204681464 0  0.5 -0.4804459958734807 0  0.5 -0.4707048677450883 0  0.5 -0.4609875815766065 0  0.5 -0.4512940759251849 0  0.5 -0.4416242912883993 0  0.5 -0.4319781678689807 0  0.5 -0.4223556545383647 0  0.5 -0.4127566896324213 0  0.5 -0.4031812128200121 0  0.5 -0.3936291733057916 0  0.5 -0.3841005081172659 0  0.5 -0.3745951585781932 0  0.5 -0.3651130778999337 0  0.5 -0.3556541993788045 0  0.5 -0.3462184677228392 0  0.5 -0.3368058273705318 0  0.5 -0.3274162224888609 0  0.5 -0.3180495969712945 0  0.5 -0.3087058944357755 0  0.5 -0.299385058222682 0  0.5 -0.2900870313927414 0  0.5 -0.2808117567250807 0  0.5 -0.2715591844628491 0  0.5 -0.2623292564012653 0  0.5 -0.253121909553727 0  0.5 -0.2439371050851549 0  0.5 -0.2347747685524501 0  0.5 -0.2256348634421331 0  0.5 -0.2165173209784076 0  0.5 -0.207422087829958 0  0.5 -0.1983491207029381 0  0.5 -0.1892983550950482 0  0.5 -0.1802697378305253 0  0.5 -0.1712632154965152 0  0.5 -0.1622787344187354 0  0.5 -0.1533162406595534 0  0.5 -0.1443756800160514 0  0.5 -0.1354569980180493 0  0.5 -0.1265601399261414 0  0.5 -0.1176850622761093 0  0.5 -0.1088317009011999 0  0.5 -0.09166666666668973 0  0.5 -0.08333333333337943 0  0.5 -0.07500000000006915 0  0.5 -0.06666666666675886 0  0.5 -0.05833333333344858 0  0.5 -0.05000000000013693 0  0.5 -0.04166666666678191 0  0.5 -0.03333333333342643 0  0.5 -0.02500000000006916 0  0.5 -0.01666666666671188 0  0.5 -0.00833333333335548 0  0.5 0.008333333333318314 0  0.5 0.01666666666663358 0  0.5 0.02499999999994162 0  0.5 0.03333333333325101 0  0.5 0.04166666666655769 0  0.5 0.04999999999986843 0  0.5 0.05833333333322258 0  0.5 0.06666666666657715 0  0.5 0.07499999999993352 0  0.5 0.08333333333328992 0  0.5 0.09166666666664541 0  0.5 0.1088317009011616 0  0.5 0.1176850622760307 0  0.5 0.1265601399260203 0  0.5 0.1354569980178909 0  0.5 0.1443756800158549 0  0.5 0.153316240659315 0  0.5 0.1622787344184454 0  0.5 0.1712632154961752 0  0.5 0.1802697378301332 0  0.5 0.1892983550946039 0  0.5 0.1983491207024433 0  0.5 0.2074220878294123 0  0.5 0.216517320977811 0  0.5 0.2256348634414833 0  0.5 0.2347747685517479 0  0.5 0.2439371050844009 0  0.5 0.2531219095529224 0  0.5 0.2623292564004089 0  0.5 0.2715591844619371 0  0.5 0.2808117567241139 0  0.5 0.290087031391723 0  0.5 0.2993850582216101 0  0.5 0.3087058944347426 0  0.5 0.3180495969703129 0  0.5 0.3274162224879299 0  0.5 0.3368058273696494 0  0.5 0.3462184677220051 0  0.5 0.3556541993780186 0  0.5 0.3651130778991989 0  0.5 0.3745951585775107 0  0.5 0.3841005081166359 0  0.5 0.3936291733052134 0  0.5 0.4031812128194852 0  0.5 0.412756689631945 0  0.5 0.4223556545379392 0  0.5 0.431978167868607 0  0.5 0.4416242912880781 0  0.5 0.4512940759249164 0  0.5 0.4609875815763912 0  0.5 0.4707048677449264 0  0.5 0.4804459958733726 0  0.5 0.4902110204680924 0  0.4900000000000277 0.5 0  0.4800000000000555 0.5 0  0.4700000000000832 0.5 0  0.4600000000001109 0.5 0  0.4500000000001387 0.5 0  0.4400000000001664 0.5 0  0.4300000000001942 0.5 0  0.4200000000002219 0.5 0  0.4100000000002497 0.5 0  0.4000000000002774 0.5 0  0.3900000000003052 0.5 0  0.3800000000003328 0.5 0  0.3700000000003606 0.5 0  0.3600000000003883 0.5 0  0.3500000000004161 0.5 0  0.3400000000004438 0.5 0  0.3300000000004716 0.5 0  0.3200000000004993 0.5 0  0.3100000000005271 0.5 0  0.3000000000005548 0.5 0  0.2900000000005825 0.5 0  0.2800000000006103 0.5 0  0.2700000000006381 0.5 0  0.2600000000006658 0.5 0  0.2500000000006935 0.5 0  0.2400000000007212 0.5 0  0.230000000000749 0.5 0  0.2200000000007767 0.5 0  0.2100000000008044 0.5 0  0.2000000000008322 0.5 0  0.19000000000086 0.5 0  0.1800000000008877 0.5 0  0.1700000000009154 0.5 0  0.1600000000009431 0.5 0  0.1500000000009709 0.5 0  0.1400000000009986 0.5 0  0.1300000000010264 0.5 0  0.1200000000010541 0.5 0  0.1100000000010818 0.5 0  0.1000000000011096 0.5 0  0.09000000000113734 0.5 0  0.08000000000116503 0.5 0  0.07000000000119283 0.5 0  0.06000000000122058 0.5 0  0.05000000000124827 0.5 0  0.04000000000127607 0.5 0  0.03000000000130376 0.5 0  0.02000000000133151 0.5 0  0.01000000000135925 0.5 0  1.376121439022882e-12 0.5 0  -0.009999999998640763 0.5 0  -0.01999999999866864 0.5 0  -0.02999999999869629 0.5 0  -0.03999999999872406 0.5 0  -0.04999999999875182 0.5 0  -0.05999999999877947 0.5 0  -0.06999999999880724 0.5 0  -0.079999999998835 0.5 0  -0.08999999999886266 0.5 0  -0.09999999999889042 0.5 0  -0.1099999999989182 0.5 0  -0.1199999999989459 0.5 0  -0.1299999999989737 0.5 0  -0.1399999999990014 0.5 0  -0.1499999999990291 0.5 0  -0.1599999999990568 0.5 0  -0.1699999999990847 0.5 0  -0.1799999999991124 0.5 0  -0.1899999999991401 0.5 0  -0.1999999999991678 0.5 0  -0.2099999999991955 0.5 0  -0.2199999999992234 0.5 0  -0.2299999999992511 0.5 0  -0.2399999999992788 0.5 0  -0.2499999999993066 0.5 0  -0.2599999999993342 0.5 0  -0.269999999999362 0.5 0  -0.2799999999993897 0.5 0  -0.2899999999994175 0.5 0  -0.2999999999994452 0.5 0  -0.3099999999994729 0.5 0  -0.3199999999995007 0.5 0  -0.3299999999995284 0.5 0  -0.3399999999995562 0.5 0  -0.3499999999995839 0.5 0  -0.3599999999996116 0.5 0  -0.3699999999996393 0.5 0  -0.379999999999667 0.5 0  -0.3899999999996949 0.5 0  -0.3999999999997226 0.5 0  -0.4099999999997503 0.5 0  -0.419999999999778 0.5 0  -0.4299999999998058 0.5 0  -0.4399999999998336 0.5 0  -0.4499999999998613 0.5 0  -0.4599999999998891 0.5 0  -0.4699999999999167 0.5 0  -0.4799999999999445 0.5 0  -0.4899999999999722 0.5 0  -0.5 0.4902110204681464 0  -0.5 0.4804459958734807 0  -0.5 0.4707048677450883 0  -0.5 0.4609875815766065 0  -0.5 0.4512940759251849 0  -0.5 0.4416242912883993 0  -0.5 0.4319781678689807 0  -0.5 0.4223556545383647 0  -0.5 0.4127566896324213 0  -0.5 0.4031812128200121 0  -0.5 0.3936291733057916 0  -0.5 0.3841005081172659 0  -0.5 0.3745951585781932 0  -0.5 0.3651130778999337 0  -0.5 0.3556541993788045 0  -0.5 0.3462184677228392 0  -0.5 0.3368058273705318 0  -0.5 0.3274162224888609 0  -0.5 0.3180495969712945 0  -0.5 0.3087058944357755 0  -0.5 0.299385058222682 0  -0.5 0.2900870313927414 0  -0.5 0.2808117567250807 0  -0.5 0.2715591844628491 0  -0.5 0.2623292564012653 0  -0.5 0.253121909553727 0  -0.5 0.2439371050851549 0  -0.5 0.2347747685524501 0  -0.5 0.2256348634421331 0  -0.5 0.2165173209784076 0  -0.5 0.207422087829958 0  -0.5 0.1983491207029381 0  -0.5 0.1892983550950482 0  -0.5 0.1802697378305253 0  -0.5 0.1712632154965152 0  -0.5 0.1622787344187354 0  -0.5 0.1533162406595534 0  -0.5 0.1443756800160514 0  -0.5 0.1354569980180493 0  -0.5 0.1265601399261414 0  -0.5 0.1176850622761093 0  -0.5 0.1088317009011999 0  -0.5 0.09167500000001694 0  -0.5 0.08335000000003931 0  -0.5 0.07502500000006167 0  -0.5 0.06670000000008947 0  -0.5 0.05837500000011001 0  -0.5 0.0500500000001328 0  -0.5 0.0417250000001127 0  -0.5 0.03340000000008944 0  -0.5 0.02507500000006573 0  -0.5 0.01675000000004653 0  -0.5 0.008425000000027341 
[...]
<PointData  Scalars="f_10"> 
<DataArray  type="Float64"  Name="f_10"  format="ascii">1.0000000000000000e+00  1.7153863304950780e-04  5.4138358587766298e-02  1.7520269681771464e-02  3.2049524169072571e-02  5.4927728728874090e-04  1.0000000000000000e+00  1.0000000000000000e+00  1.9506016685235428e-02  1.8203184015849597e-02  6.9294633289050611e-02  6.9295945864786365e-02  1.7075825360755295e-04  1.7573038880879609e-04  1.8697904623214204e-04  2.0254457518868754e-04  2.2105858259922358e-04  2.4169453962425406e-04  2.6403898689091390e-04  2.8819747223712822e-04  3.1366206081037451e-04  3.4105419506012607e-04  3.7056367053034834e-04  4.0291001710463469e-04  4.3763809392988477e-04  4.7552634157568959e-04  5.1719662423390430e-04  5.6299723501431961e-04  6.1392822700798318e-04  6.6913534575729927e-04  7.3022021075815687e-04  7.9754285372359316e-04  8.7058856507492028e-04  9.5068613883934579e-04  1.0390921669255282e-03  1.1338893629327235e-03  1.2372252000275815e-03  1.3498120609004526e-03  1.4714397831938290e-03  1.6031538566691741e-03  1.7441856598694478e-03  1.8968543430213775e-03  2.0599683109758242e-03  2.2350566840214771e-03  2.4215856733632306e-03  2.6203878660374927e-03  2.8316680096997773e-03  3.0550669578941836e-03  3.2914244220650472e-03  3.5413814624300566e-03  3.8040177162873370e-03  4.0791207033960752e-03  4.3670662068244458e-03  4.6684029620571678e-03  4.9808841791310187e-03  5.3063074765224705e-03  5.6428105499181308e-03  5.9909572648507749e-03  6.3495088146737566e-03  6.7178018418616522e-03  7.0953755026884327e-03  7.4815080787949649e-03  7.8761960984647262e-03  8.2771474754355558e-03  8.6828875617759645e-03  9.0974561366249148e-03  9.5141763029045028e-03  9.9332110894124314e-03  1.0357689097692508e-02  1.0784128587377340e-02  1.1210085170025395e-02  1.1637505996778130e-02  1.2066647590400565e-02  1.2499004796795141e-02  1.2926972238750202e-02  1.3356469781994295e-02  1.3786684926514159e-02  1.4210705195000150e-02  1.4644206853948009e-02  1.5072133917277896e-02  1.5501451874739834e-02  1.5935640178995850e-02  1.6372501779383070e-02  1.6811737797750272e-02  1.7260985151413347e-02  1.7714969607824697e-02  1.8180094765044397e-02  1.8660050535585480e-02  1.9151018274864047e-02  1.9662964492671877e-02  2.0199345737668274e-02  2.0762035145537355e-02  2.1358696768840547e-02  2.1993123368800438e-02  2.2682782165079428e-02  2.3436411083293349e-02  2.4258858128831683e-02  2.5156099300462510e-02  2.6146056842455755e-02  2.7244364098848884e-02  2.8462786092407578e-02  2.9823571946294963e-02  3.1342642769910986e-02  3.3060277396991099e-02  3.4979480737621090e-02  3.7148199424158521e-02  3.9606778779393580e-02  4.2343392774271592e-02  4.5379519566005597e-02  4.8602969014499314e-02  5.1862177452351325e-02  5.2592344526509641e-02  4.9564254080998085e-02  4.6703629915093067e-02  4.3878498083577647e-02  4.1410031674197413e-02  3.9230666793807344e-02  3.7323094647738538e-02  3.5647581653634630e-02  3.4169618163248955e-02  3.2867611939469021e-02  3.1714686553493993e-02  3.0689663785885082e-02  2.9775098029535776e-02  2.8956944472295451e-02  2.8214303052872477e-02  2.7534858136918212e-02  2.6923546769918448e-02  2.6353454482473532e-02  2.5817632137391959e-02  2.5326861643984903e-02  2.4854020830404586e-02  2.4417468831439745e-02  2.3996208981311690e-02  2.3595144751859146e-02  2.3213212590132079e-02  2.2847932500538869e-02  2.2494656265771587e-02  2.2144733063568414e-02  2.1816702335488880e-02  2.1488495411841148e-02  2.1171768206496019e-02  2.0862851401208898e-02  2.0566014347147013e-02  2.0278966198115464e-02  1.9995933384390839e-02  1.9732126186932250e-02  1.9475846603587171e-02  1.9229643153918646e-02  1.8995518664954632e-02  1.8769442119438689e-02  1.8572967986622963e-02  1.8383680867744126e-02  1.8057838708621203e-02  1.7922982451245538e-02  1.7802815705420166e-02  1.7702222814351951e-02  1.7612827811435656e-02  1.7544488493031998e-02  1.7496795442954249e-02  1.7463145671216911e-02  1.7442414242883588e-02  1.7456461323943892e-02  1.7482141154932965e-02  1.7589540469817592e-02  1.7671381176144443e-02  1.7771827924930102e-02  1.7894971322183068e-02  1.8032445324284371e-02  1.8192710303178931e-02  1.8372618644034514e-02  1.8566523531541902e-02  1.8772202667471014e-02  1.9006912409459349e-02  1.9250790620368729e-02  1.9800767198746384e-02  2.0105472300678894e-02  2.0418900051312312e-02  2.0756915290012702e-02  2.1103821649887500e-02  2.1460939616274113e-02  2.1827169563346870e-02  2.2199792295261297e-02  2.2584034222714072e-02  2.2970531279799315e-02  2.3362739978623256e-02  2.3761878525723545e-02  2.4167291065655506e-02  2.4576801102153774e-02  2.4985038318990769e-02  2.5392820653862801e-02  2.5797604612936467e-02  2.6199769907294897e-02  2.6598326427044579e-02  2.6991104399296219e-02  2.7375500762602777e-02  2.7751635230885027e-02  2.8115070921728123e-02  2.8471298431568814e-02  2.8809053823819583e-02  2.9136447744204513e-02  2.9454176420924766e-02  2.9749202022600847e-02  3.0031246303442401e-02  3.0299151966096765e-02  3.0550063436913202e-02  3.0781537784905159e-02  3.0994193882353128e-02  3.1190227164731073e-02  3.1368352060279839e-02  3.1526195386246333e-02  3.1660202489797291e-02  3.1777882700232137e-02  3.1873410352897251e-02  3.1955454253690806e-02  3.1996574950805878e-02  3.2034961601066524e-02  3.1972127565453083e-02  3.1794355306599360e-02  3.1545442417071252e-02  3.1250861723115496e-02  3.0931888021225748e-02  3.0600079274729169e-02  3.0269315581358376e-02  2.9944147119117852e-02  2.9627577077638630e-02  2.9320577381832205e-02  2.9026657131686610e-02  2.8744428029853736e-02  2.8471633632494078e-02  2.8208427528791238e-02  2.7951888320302931e-02  2.7700146747943178e-02  2.7451957824568829e-02  2.7205177762355041e-02  2.6957561419228445e-02  2.6706717455205267e-02  2.6452928697974346e-02  2.6192646141020876e-02  2.5919306044015246e-02  2.5630144843679519e-02  2.5323116746026657e-02  2.4997244505763513e-02  2.4649512683590148e-02  2.4279091865713628e-02  2.3883835934458773e-02  2.3464126967229756e-02  2.3017580212486035e-02  2.2545139048868425e-02  2.2045376906113329e-02  2.1518428006395678e-02  2.0966009319032794e-02  2.0387390625939663e-02  1.9784597824337679e-02  1.9159195897323643e-02  1.8511687663884065e-02  1.7842674331135948e-02  1.7158409378799064e-02  1.6459781562401139e-02  1.5749093769912122e-02  1.5029820987593631e-02  1.4304015932690180e-02  1.3576488380242479e-02  1.2846593910540575e-02  1.2121982650344573e-02  1.1404458005256576e-02  1.0697108461368480e-02  1.0002961447596399e-02  9.3226045960960058e-03  8.6626433037609984e-03  8.0215900318958370e-03  7.4037357242676145e-03  6.8115581959877942e-03  6.2435844285215220e-03  5.7035938258303198e-03  5.1915727671212253e-03  4.7081464736000479e-03  4.2545759755563033e-03  3.8292398403800719e-03  3.4331955938184172e-03  3.0660959393305838e-03  2.7267034974988464e-03  2.4140044341195025e-03  2.1272752348852468e-03  1.8665549516147560e-03  1.6288576639628114e-03  1.4145172056157355e-03  1.2214980251761835e-03  1.0481484126701681e-03  8.9461882108646024e-04  7.5851480403711809e-04  6.3836781522594776e-04  5.3335878989834720e-04  4.4287865030854840e-04  3.6504057297545882e-04  2.9933091142949920e-04  2.4458420768988374e-04  2.0076910754598771e-04  1.6619965225005902e-04  1.4056779146002601e-04  1.2380760111620892e-04  1.1502765097674586e-04  1.1364912801319620e-04  1.1948641609271135e-04  1.3199557058909183e-04  1.5114309128576444e-04  1.7622944949529401e-04  2.0705755041138392e-04  2.4292602038700729e-04  2.8366939727984456e-04  3.2784501595786220e-04  3.7461983137054112e-04  4.2187770482569810e-04  4.6773233272688055e-04  5.0747153461303690e-04  5.3650222981929912e-04  5.4808057348923597e-04  5.4579428267288526e-04  5.4509691616664517e-04  5.4031099011381104e-04  5.3607878071281780e-04  5.3095906803115244e-04  5.2507466678370545e-04  5.1972642505396553e-04  5.1285229484745076e-04  5.0647241678744342e-04  5.0067232340161535e-04  4.9559071813174913e-04  4.9190239791607662e-04  4.9029479770685549e-04  4.9180730966317035e-04  4.9696078629313744e-04  5.0775941201178015e-04  5.2625330295152299e-04  5.5371323417647720e-04  5.9404749384392582e-04  6.5007291361702190e-04  7.2660792051286590e-04  8.2963405134437221e-04  9.6693191464234708e-04  1.1469506824005324e-03  1.3817806456167532e-03  1.6864806826160082e-03  2.0814058730529751e-03  2.5896613252778802e-03  3.2406054018008145e-03  4.0740026958773733e-03  5.1347317040734966e-03  6.4919706160252149e-03  8.2235739759305929e-03  1.0408361302621134e-02  1.3217231368194547e-02  1.6758660058311701e-02  2.1248182301236426e-02  2.6921230850949829e-02  3.4092985162769970e-02  4.3268842914343908e-02  5.4795266814268252e-02  8.6728396146262404e-02  1.0834929254928222e-01  1.3541776086310256e-01  1.6878968570060324e-01  2.1083290096680679e-01  2.6349221234329978e-01  3.2908211700000467e-01  4.1089641615827344e-01  5.1272879586995523e-01  6.4146645141406677e-01  8.0085272055357837e-01  1.0000000000000000e+00  1.0000000000000000e+00  1.0000000000000000e+00  1.0000000000000000e+00  1.0000000000000000e+00  1.0000000000000000e+00  1.0000000000000000e+00  1.0000000000000000e+00  1.0000000000000000e+00  1.0000000000000000e+00  1.0000000000000000e+00  1.0000000000000000e+00  1.0000000000000000e+00  1.0000000000000000e+00  1.0000000000000000e+00  1.0000000000000000e+00  1.0000000000000000e+00  1.0000000000000000e+00  1.0000000000000000e+00  1.0000000000000000e+00  1.0000000000000000e+00  1.0000000000000000e+00  1.0000000000000000e+00  1.0000000000000000e+00  1.0000000000000000e+00  1.0000000000000000e+00  1.0000000000000000e+00  1.0000000000000000e+00  1.0000000000000000e+00  1.0000000000000000e+00  1.0000000000000000e+00  1.0000000000000000e+00  1.0000000000000000e+00  1.0000000000000000e+00  1.0000000000000000e+00  1.0000000000000000e+00  1.0000000000000000e+00  1.0000000000000000e+00  1.0000000000000000e+00  1.0000000000000000e+00  1.0000000000000000e+00  1.0000000000000000e+00  1.0000000000000000e+00  1.0000000000000000e+00  1.0000000000000000e+00  1.0000000000000000e+00  1.0000000000000000e+00  1.0000000000000000e+00  1.0000000000000000e+00  1.0000000000000000e+00  1.0000000000000000e+00  1.0000000000000000e+00  1.0000000000000000e+00  1.0000000000000000e+00  1.0000000000000000e+00  1.0000000000000000e+00  1.0000000000000000e+00  1.0000000000000000e+00  1.0000000000000000e+00  1.0000000000000000e+00  1.0000000000000000e+00  1.0000000000000000e+00  1.0000000000000000e+00  1.0000000000000000e+00  1.0000000000000000e+00  1.0000000000000000e+00  1.0000000000000000e+00  1.0000000000000000e+00  1.0000000000000000e+00  1.0000000000000000e+00  1.0000000000000000e+00  1.0000000000000000e+00  1.0000000000000000e+00  1.0000000000000000e+00  1.0000000000000000e+00  1.0000000000000000e+00  1.0000000000000000e+00  1.0000000000000000e+00  1.0000000000000000e+00  1.0000000000000000e+00  1.0000000000000000e+00  1.0000000000000000e+00  1.0000000000000000e+00  1.0000000000000000e+00  1.0000000000000000e+00  1.0000000000000000e+00  1.0000000000000000e+00  1.0000000000000000e+00  1.0000000000000000e+00  1.0000000000000000e+00  1.0000000000000000e+00  1.0000000000000000e+00  1.0000000000000000e+00  1.0000000000000000e+00  1.0000000000000000e+00  1.0000000000000000e+00  1.0000000000000000e+00  1.0000000000000000e+00  1.0000000000000000e+00  1.0000000000000000e+00  1.0000000000000000e+00  1.0000000000000000e+00  1.0000000000000000e+00  1.0000000000000000e+00  1.0000000000000000e+00  1.0000000000000000e+00  1.0000000000000000e+00  1.0000000000000000e+00  1.0000000000000000e+00  1.0000000000000000e+00  8.0084392333300969e-01  6.4146754264712857e-01  5.1271745048253725e-01  4.1091351808569088e-01  3.2908681478151225e-01  2.6349229082060355e-01  2.1083490638494717e-01  1.6878484696810156e-01  1.3542395815439712e-01  1.0835300002194251e-01  8.6730153322243542e-02  5.4793189520023773e-02  4.3263501410988343e-02  3.4074473753689556e-02  2.6916506188443649e-02  2.1242380773668374e-02  1.6749979071788705e-02  1.3205175332851793e-02  1.0394158552466988e-02  8.2056183654842744e-03  6.4700079910306454e-03  5.1087574532050224e-03  4.0429708443842039e-03  3.2040965070684255e-03  2.5465998276171281e-03  2.0309534135757312e-03  1.6277794117445709e-03  1.3137555387572994e-03  1.0687063713112454e-03  8.7728394505457189e-04  7.2757435412398744e-04  6.1105333476475657e-04  5.2003696997264754e-04  4.4840443508182090e-04  3.9157484260679310e-04  3.4670733569923238e-04  3.1023352925873507e-04  2.8075335866464108e-04  2.5640781743568880e-04  2.3577317654546113e-04  2.1822810665748685e-04  2.0301544285647086e-04  1.8984956613987415e-04  1.7830953164032684e-04  1.6844325521806191e-04  1.6027622591692619e-04  1.5434463838715068e-04  1.5022804338715406e-04  1.4841211729245158e-04  1.4934409608710289e-04  1.5271496530052650e-04  1.6004719048970441e-04  1.6750732035389498e-04  6.9319445294985488e-02  6.9359468147882297e-02  6.9353454614871635e-02  6.9325431355431524e-02  6.9298140653699603e-02  6.9416696136436487e-02  6.9367727030817269e-02  6.9279129690889105e-02  6.9335215509219270e-02  6.9456745270918038e-02  6.9268542039461492e-02  6.9355479817952481e-02  6.9457520862886132e-02  6.9458500632540651e-02  6.9457659161176952e-02  6.9373791440958399e-02  6.9365911122141757e-02  6.9314427919280761e-02  6.9454546605668022e-02  6.9468208768786469e-02  6.9357181148302346e-02  6.9403631810275271e-02  6.9521992416664569e-02  6.9548758527932103e-02  6.9475483968800267e-02  6.9474987016029111e-02  6.9511639258931612e-02  6.9500866735285924e-02  6.9598067682766551e-02  6.9553467049529916e-02  6.9527430527764222e-02  6.9558212271980918e-02  6.9584077089995658e-02  6.9531551114649232e-02  6.9649838655042026e-02  6.9867790071219307e-02  6.9655497001593528e-02  6.9837927301911198e-02  6.9891249179726889e-02  6.9851993171677909e-02  7.0177733363089689e-02  7.0239954836412377e-02  7.0264234041948051e-02  7.0540617979616263e-02  7.0590114677888463e-02  7.0859180617166145e-02  7.1244235747150636e-02  7.1541903224398101e-02  7.1696225863968954e-02  7.1997575348563186e-02  7.2203358360429501e-02  7.2162188336046734e-02  7.2219686634288099e-02  7.1999805125046862e-02  7.1463899421004479e-02  7.0610144953655876e-02  6.9439504270983415e-02  6.7769048051433384e-02  6.5905769131528527e-02  6.3699406641202161e-02  6.1142438012555915e-02  5.8596779957125505e-02  5.5844404130747705e-02  5.3173969228614774e-02  5.0539726873431660e-02  4.8015253671907066e-02  4.5646675906553441e-02  4.3433015146722431e-02  4.1430113752343740e-02  3.9547708372941068e-02  3.7891344991360071e-02  3.6359627799446223e-02  3.4980190113278770e-02  3.3757778317101542e-02  3.2654333940348966e-02  3.1666216456610018e-02  3.0776565579935279e-02  2.9980293318064361e-02  2.9262892507055164e-02  2.8623809798031169e-02  2.8044141923232010e-02  2.7517226675965067e-02  2.7042136309499525e-02  2.6607218671424029e-02  2.6208430955476848e-02  2.5842680717899840e-02  2.5503392444687113e-02  2.5187657979390297e-02  2.4890854893633130e-02  2.4609331457226890e-02  2.4342173057459997e-02  2.4085557958539335e-02  2.3835864563819371e-02  2.3592197053032629e-02  2.3352112860044332e-02  2.3115666581021606e-02  2.2877346040120820e-02  2.2635355591758947e-02  2.2388903266711266e-02  2.2137603895608343e-02  2.1881316826880718e-02  2.1620005885818781e-02  2.1355312108760838e-02  2.1088219879753279e-02  2.0820632720755426e-02  2.0557729394349539e-02  2.0302862176178063e-02  2.0064265855850784e-02  1.9850517050532389e-02  1.9676035675178068e-02  1.9555353987950087e-02  6.9318264002847574e-02  6.9355612616422688e-02  6.9350794093928525e-02  6.9322050966189680e-02  6.9293324583632673e-02  6.9413590194583749e-02  6.9357875087469073e-02  6.9272234530170840e-02  6.9322419945044400e-02  6.9439532718155186e-02  6.9265480421302136e-02  6.9333252156511094e-02  6.9434057488876599e-02  6.9433744955346807e-02  6.9432655297933021e-02  6.9352553778400175e-02  6.9340253492499962e-02  6.9268950101409751e-02  6.9414339874109429e-02  6.9451651199882461e-02  6.9336157328386494e-02  6.9390763400003511e-02  6.9485867654554487e-02  6.9511171216838086e-02  6.9432753011297615e-02  6.9433331488954780e-02  6.9473051022069521e-02  6.9458561356143644e-02  6.9545036665427953e-02  6.9497289944165624e-02  6.9467739412949620e-02  6.9492043295328446e-02  6.9507507698670770e-02  6.9452666810978073e-02  6.9565034474161291e-02  6.9787192790838587e-02  6.9565351760534216e-02  6.9747665347108162e-02  6.9792482051865945e-02  6.9747078133093526e-02  7.0074973858918588e-02  7.0128888330365555e-02  7.0150483364094240e-02  7.0421876655265725e-02  7.0454688892341522e-02  7.0705168128195328e-02  7.1060948596884652e-02  7.1328534705007676e-02  7.1442769613524346e-02  7.1701820051979642e-02  7.1858377056915820e-02  7.1762215832949131e-02  7.1792408258452262e-02  7.1517478159760006e-02  7.0934160170783522e-02  7.0057863930861705e-02  6.8861734098659741e-02  6.7178949332838203e-02  6.5322914970634874e-02  6.3131299342460867e-02  6.0600431649592640e-02  5.8103380495021013e-02  5.5390596485140782e-02  5.2770332442988954e-02  5.0186788804989481e-02  4.7713659045263895e-02  4.5395903621201120e-02  4.3229109413317070e-02  4.1270043363998497e-02  3.9426674894671727e-02  3.7807297431275373e-02  3.6309624757140509e-02  3.4958322435114639e-02  3.3761732400398002e-02  3.2680351742005467e-02  3.1710862245494228e-02  3.0836572565107450e-02  3.0052314228599514e-02  2.9343600789079691e-02  2.8710838894787587e-02  2.8134144836500664e-02  2.7606748142191384e-02  2.7128532502024915e-02  2.6686483064824337e-02  2.6278222899362432e-02  2.5898819829457943e-02  2.5542477228503901e-02  2.5206352540213150e-02  2.4885426887699010e-02  2.4575836534351456e-02  2.4276746453393051e-02  2.3984408446523560e-02  2.3694998300735456e-02  2.3408310480840137e-02  2.3121458899111380e-02  2.2831345100536977e-02  2.2534988380740632e-02  2.2230415736407990e-02  2.1917306374840410e-02  2.1595139004366992e-02  2.1264490856464102e-02  2.0926847376380120e-02  2.0583036546326053e-02  2.0236240536039500e-02  1.9889729339754122e-02  1.9549024428999452e-02  1.9220898822065464e-02  1.8913919916650899e-02  1.8640144853045361e-02  1.8418250441710211e-02  1.8264853582790563e-02  6.2202482786480118e-01  4.4681864847697389e-01  3.3555080824165684e-01  2.6126609736894202e-01  2.0749822431618961e-01  1.6700608725124833e-01  1.3637249542613131e-01  1.1325012160702547e-01  9.5071715389080769e-02  8.1031087697988322e-02  6.9925208018839891e-02  6.1150127841745366e-02  5.4169028976672938e-02  4.8570966992838888e-02  4.4043864130896691e-02  4.0379771474067315e-02  3.7386123103633810e-02  3.4934131774640199e-02  3.2919837813320370e-02  3.1251272797889633e-02  2.9862892364849625e-02  2.8703995216045330e-02  2.7731187171415018e-02  2.6907094585690565e-02  2.6207161796898706e-02  2.5610128506767103e-02  2.5091784432905141e-02  2.4649370871341721e-02  2.4258794348390039e-02  2.3912082082592320e-02  2.3603365282361854e-02  2.3325506055459678e-02  2.3071244425345167e-02  2.2835076288866208e-02  2.2613358268005791e-02  2.2397929062395475e-02  2.2189238540183325e-02  2.1976431884344443e-02  2.1759388677673235e-02  2.1539380623281455e-02  2.1309816910610895e-02  2.1070895520066746e-02  2.0820615304082295e-02  2.0560083796614729e-02  2.0286520746883436e-02  2.0001533584323307e-02  1.9707420867540966e-02  1.9404475123299854e-02  1.9097295827820295e-02  1.8789155220736136e-02  1.8487052363664904e-02  1.8202056775810094e-02  1.7944037227804133e-02  1.7730223575106226e-02  1.7578257804220489e-02  5.8001651694531645e-03  5.8685869426140661e-04  2.2578270786865327e-02  2.7429981134839149e-02  1.8213948389512079e-02  3.5078237733565422e-03  2.9253511592797548e-03  2.8532311240469392e-02  2.5072551168157143e-02  1.2536508517300642e-02  1.5514949461276565e-03  1.8444815116348893e-04  2.5359700164231665e-02  2.8338355008385444e-02  9.9660919747234736e-03  5.1410704568618281e-03  2.8928079402534283e-02  1.9643028995203139e-02  3.2236045161217891e-04  5.3390669661151999e-03  2.6912354451616036e