<?xml version="1.0"?>
<VTKFile type="UnstructuredGrid"  version="0.1"  >
<UnstructuredGrid>
<Piece  NumberOfPoints="15540" NumberOfCells="30546">
<Points>
<DataArray  type="Float64"  NumberOfComponents="3"  format="ascii">0 0 0  -0.5 -0.5 0  0.5 -0.5 0  0.5 0 0  0.5 0.5 0  -0.5 0.5 0  -0.5 0.0001 0  -0.5 -0.0001 0  0.5 0.1 0  0.5 -0.1 0  -0.5 -0.1 0  -0.5 0.1 0  -0.4900000000000277 -0.5 0  -0.4800000000000555 -0.5 0  -0.4700000000000832 -0.5 0  -0.4600000000001109 -0.5 0  -0.4500000000001387 -0.5 0  -0.4400000000001664 -0.5 0  -0.4300000000001942 -0.5 0  -0.4200000000002219 -0.5 0  -0.4100000000002497 -0.5 0  -0.4000000000002774 -0.5 0  -0.3900000000003052 -0.5 0  -0.3800000000003328 -0.5 0  -0.3700000000003606 -0.5 0  -0.3600000000003883 -0.5 0  -0.3500000000004161 -0.5 0  -0.3400000000004438 -0.5 0  -0.3300000000004716 -0.5 0  -0.3200000000004993 -0.5 0  -0.3100000000005271 -0.5 0  -0.3000000000005548 -0.5 0  -0.2900000000005825 -0.5 0  -0.2800000000006103 -0.5 0  -0.2700000000006381 -0.5 0  -0.2600000000006658 -0.5 0  -0.2500000000006935 -0.5 0  -0.2400000000007212 -0.5 0  -0.230000000000749 -0.5 0  -0.2200000000007767 -0.5 0  -0.2100000000008044 -0.5 0  -0.2000000000008322 -0.5 0  -0.19000000000086 -0.5 0  -0.1800000000008877 -0.5 0  -0.1700000000009154 -0.5 0  -0.1600000000009431 -0.5 0  -0.1500000000009709 -0.5 0  -0.1400000000009986 -0.5 0  -0.1300000000010264 -0.5 0  -0.1200000000010541 -0.5 0  -0.1100000000010818 -0.5 0  -0.1000000000011096 -0.5 0  -0.09000000000113734 -0.5 0  -0.08000000000116503 -0.5 0  -0.07000000000119283 -0.5 0  -0.06000000000122058 -0.5 0  -0.05000000000124827 -0.5 0  -0.04000000000127607 -0.5 0  -0.03000000000130376 -0.5 0  -0.02000000000133151 -0.5 0  -0.01000000000135925 -0.5 0  -1.376121439022882e-12 -0.5 0  0.009999999998640763 -0.5 0  0.01999999999866864 -0.5 0  0.02999999999869629 -0.5 0  0.03999999999872406 -0.5 0  0.04999999999875182 -0.5 0  0.05999999999877947 -0.5 0  0.06999999999880724 -0.5 0  0.079999999998835 -0.5 0  0.08999999999886266 -0.5 0  0.09999999999889042 -0.5 0  0.1099999999989182 -0.5 0  0.1199999999989459 -0.5 0  0.1299999999989737 -0.5 0  0.1399999999990014 -0.5 0  0.1499999999990291 -0.5 0  0.1599999999990568 -0.5 0  0.1699999999990847 -0.5 0  0.1799999999991124 -0.5 0  0.1899999999991401 -0.5 0  0.1999999999991678 -0.5 0  0.2099999999991955 -0.5 0  0.2199999999992234 -0.5 0  0.2299999999992511 -0.5 0  0.2399999999992788 -0.5 0  0.2499999999993066 -0.5 0  0.2599999999993342 -0.5 0  0.269999999999362 -0.5 0  0.2799999999993897 -0.5 0  0.2899999999994175 -0.5 0  0.2999999999994452 -0.5 0  0.3099999999994729 -0.5 0  0.3199999999995007 -0.5 0  0.3299999999995284 -0.5 0  0.3399999999995562 -0.5 0  0.3499999999995839 -0.5 0  0.3599999999996116 -0.5 0  0.3699999999996393 -0.5 0  0.379999999999667 -0.5 0  0.3899999999996949 -0.5 0  0.3999999999997226 -0.5 0  0.4099999999997503 -0.5 0  0.419999999999778 -0.5 0  0.4299999999998058 -0.5 0  0.4399999999998336 -0.5 0  0.4499999999998613 -0.5 0  0.4599999999998891 -0.5 0  0.4699999999999167 -0.5 0  0.4799999999999445 -0.5 0  0.4899999999999722 -0.5 0  0.5 -0.4902110204681464 0  0.5 -0.4804459958734807 0  0.5 -0.4707048677450883 0  0.5 -0.4609875815766065 0  0.5 -0.4512940759251849 0  0.5 -0.4416242912883993 0  0.5 -0.4319781678689807 0  0.5 -0.4223556545383647 0  0.5 -0.4127566896324213 0  0.5 -0.4031812128200121 0  0.5 -0.3936291733057916 0  0.5 -0.3841005081172659 0  0.5 -0.3745951585781932 0  0.5 -0.3651130778999337 0  0.5 -0.3556541993788045 0  0.5 -0.3462184677228392 0  0.5 -0.3368058273705318 0  0.5 -0.3274162224888609 0  0.5 -0.3180495969712945 0  0.5 -0.3087058944357755 0  0.5 -0.299385058222682 0  0.5 -0.2900870313927414 0  0.5 -0.2808117567250807 0  0.5 -0.2715591844628491 0  0.5 -0.2623292564012653 0  0.5 -0.253121909553727 0  0.5 -0.2439371050851549 0  0.5 -0.2347747685524501 0  0.5 -0.2256348634421331 0  0.5 -0.2165173209784076 0  0.5 -0.207422087829958 0  0.5 -0.1983491207029381 0  0.5 -0.1892983550950482 0  0.5 -0.1802697378305253 0  0.5 -0.1712632154965152 0  0.5 -0.1622787344187354 0  0.5 -0.1533162406595534 0  0.5 -0.1443756800160514 0  0.5 -0.1354569980180493 0  0.5 -0.1265601399261414 0  0.5 -0.1176850622761093 0  0.5 -0.1088317009011999 0  0.5 -0.09166666666668973 0  0.5 -0.08333333333337943 0  0.5 -0.07500000000006915 0  0.5 -0.06666666666675886 0  0.5 -0.05833333333344858 0  0.5 -0.05000000000013693 0  0.5 -0.04166666666678191 0  0.5 -0.03333333333342643 0  0.5 -0.02500000000006916 0  0.5 -0.01666666666671188 0  0.5 -0.00833333333335548 0  0.5 0.008333333333318314 0  0.5 0.01666666666663358 0  0.5 0.02499999999994162 0  0.5 0.03333333333325101 0  0.5 0.04166666666655769 0  0.5 0.04999999999986843 0  0.5 0.05833333333322258 0  0.5 0.06666666666657715 0  0.5 0.07499999999993352 0  0.5 0.08333333333328992 0  0.5 0.09166666666664541 0  0.5 0.1088317009011616 0  0.5 0.1176850622760307 0  0.5 0.1265601399260203 0  0.5 0.1354569980178909 0  0.5 0.1443756800158549 0  0.5 0.153316240659315 0  0.5 0.1622787344184454 0  0.5 0.1712632154961752 0  0.5 0.1802697378301332 0  0.5 0.1892983550946039 0  0.5 0.1983491207024433 0  0.5 0.2074220878294123 0  0.5 0.216517320977811 0  0.5 0.2256348634414833 0  0.5 0.2347747685517479 0  0.5 0.2439371050844009 0  0.5 0.2531219095529224 0  0.5 0.2623292564004089 0  0.5 0.2715591844619371 0  0.5 0.2808117567241139 0  0.5 0.290087031391723 0  0.5 0.2993850582216101 0  0.5 0.3087058944347426 0  0.5 0.3180495969703129 0  0.5 0.3274162224879299 0  0.5 0.3368058273696494 0  0.5 0.3462184677220051 0  0.5 0.3556541993780186 0  0.5 0.3651130778991989 0  0.5 0.3745951585775107 0  0.5 0.3841005081166359 0  0.5 0.3936291733052134 0  0.5 0.4031812128194852 0  0.5 0.412756689631945 0  0.5 0.4223556545379392 0  0.5 0.431978167868607 0  0.5 0.4416242912880781 0  0.5 0.4512940759249164 0  0.5 0.4609875815763912 0  0.5 0.4707048677449264 0  0.5 0.4804459958733726 0  0.5 0.4902110204680924 0  0.4900000000000277 0.5 0  0.4800000000000555 0.5 0  0.4700000000000832 0.5 0  0.4600000000001109 0.5 0  0.4500000000001387 0.5 0  0.4400000000001664 0.5 0  0.4300000000001942 0.5 0  0.4200000000002219 0.5 0  0.4100000000002497 0.5 0  0.4000000000002774 0.5 0  0.3900000000003052 0.5 0  0.3800000000003328 0.5 0  0.3700000000003606 0.5 0  0.3600000000003883 0.5 0  0.3500000000004161 0.5 0  0.3400000000004438 0.5 0  0.3300000000004716 0.5 0  0.3200000000004993 0.5 0  0.3100000000005271 0.5 0  0.3000000000005548 0.5 0  0.2900000000005825 0.5 0  0.2800000000006103 0.5 0  0.2700000000006381 0.5 0  0.2600000000006658 0.5 0  0.2500000000006935 0.5 0  0.2400000000007212 0.5 0  0.230000000000749 0.5 0  0.2200000000007767 0.5 0  0.2100000000008044 0.5 0  0.2000000000008322 0.5 0  0.19000000000086 0.5 0  0.1800000000008877 0.5 0  0.1700000000009154 0.5 0  0.1600000000009431 0.5 0  0.1500000000009709 0.5 0  0.1400000000009986 0.5 0  0.1300000000010264 0.5 0  0.1200000000010541 0.5 0  0.1100000000010818 0.5 0  0.1000000000011096 0.5 0  0.09000000000113734 0.5 0  0.08000000000116503 0.5 0  0.07000000000119283 0.5 0  0.06000000000122058 0.5 0  0.05000000000124827 0.5 0  0.04000000000127607 0.5 0  0.03000000000130376 0.5 0  0.02000000000133151 0.5 0  0.01000000000135925 0.5 0  1.376121439022882e-12 0.5 0  -0.009999999998640763 0.5 0  -0.01999999999866864 0.5 0  -0.02999999999869629 0.5 0  -0.03999999999872406 0.5 0  -0.04999999999875182 0.5 0  -0.05999999999877947 0.5 0  -0.06999999999880724 0.5 0  -0.079999999998835 0.5 0  -0.08999999999886266 0.5 0  -0.09999999999889042 0.5 0  -0.1099999999989182 0.5 0  -0.1199999999989459 0.5 0  -0.1299999999989737 0.5 0  -0.1399999999990014 0.5 0  -0.1499999999990291 0.5 0  -0.1599999999990568 0.5 0  -0.1699999999990847 0.5 0  -0.1799999999991124 0.5 0  -0.1899999999991401 0.5 0  -0.1999999999991678 0.5 0  -0.2099999999991955 0.5 0  -0.2199999999992234 0.5 0  -0.2299999999992511 0.5 0  -0.2399999999992788 0.5 0  -0.2499999999993066 0.5 0  -0.2599999999993342 0.5 0  -0.269999999999362 0.5 0  -0.2799999999993897 0.5 0  -0.2899999999994175 0.5 0  -0.2999999999994452 0.5 0  -0.3099999999994729 0.5 0  -0.3199999999995007 0.5 0  -0.3299999999995284 0.5 0  -0.3399999999995562 0.5 0  -0.3499999999995839 0.5 0  -0.3599999999996116 0.5 0  -0.3699999999996393 0.5 0  -0.379999999999667 0.5 0  -0.3899999999996949 0.5 0  -0.3999999999997226 0.5 0  -0.4099999999997503 0.5 0  -0.419999999999778 0.5 0  -0.4299999999998058 0.5 0  -0.4399999999998336 0.5 0  -0.4499999999998613 0.5 0  -0.4599999999998891 0.5 0  -0.4699999999999167 0.5 0  -0.4799999999999445 0.5 0  -0.4899999999999722 0.5 0  -0.5 0.4902110204681464 0  -0.5 0.4804459958734807 0  -0.5 0.4707048677450883 0  -0.5 0.4609875815766065 0  -0.5 0.4512940759251849 0  -0.5 0.4416242912883993 0  -0.5 0.4319781678689807 0  -0.5 0.4223556545383647 0  -0.5 0.4127566896324213 0  -0.5 0.4031812128200121 0  -0.5 0.3936291733057916 0  -0.5 0.3841005081172659 0  -0.5 0.3745951585781932 0  -0.5 0.3651130778999337 0  -0.5 0.3556541993788045 0  -0.5 0.3462184677228392 0  -0.5 0.3368058273705318 0  -0.5 0.3274162224888609 0  -0.5 0.3180495969712945 0  -0.5 0.3087058944357755 0  -0.5 0.299385058222682 0  -0.5 0.2900870313927414 0  -0.5 0.2808117567250807 0  -0.5 0.2715591844628491 0  -0.5 0.2623292564012653 0  -0.5 0.253121909553727 0  -0.5 0.2439371050851549 0  -0.5 0.2347747685524501 0  -0.5 0.2256348634421331 0  -0.5 0.2165173209784076 0  -0.5 0.207422087829958 0  -0.5 0.1983491207029381 0  -0.5 0.1892983550950482 0  -0.5 0.1802697378305253 0  -0.5 0.1712632154965152 0  -0.5 0.1622787344187354 0  -0.5 0.1533162406595534 0  -0.5 0.1443756800160514 0  -0.5 0.1354569980180493 0  -0.5 0.1265601399261414 0  -0.5 0.1176850622761093 0  -0.5 0.1088317009011999 0  -0.5 0.09167500000001694 0  -0.5 0.08335000000003931 0  -0.5 0.07502500000006167 0  -0.5 0.06670000000008947 0  -0.5 0.05837500000011001 0  -0.5 0.0500500000001328 0  -0.5 0.0417250000001127 0  -0.5 0.03340000000008944 0  -0.5 0.02507500000006573 0  -0.5 0.01675000000004653 0  -0.5 0.008425000000027341 
[...]
<PointData  Vectors="f_7"> 
<DataArray  type="Float64"  Name="f_7"  NumberOfComponents="3" format="ascii">-2.8100639137749051e-04 1.0146679365672607e-03 0.0000000000000000e+00  0.0000000000000000e+00 0.0000000000000000e+00 0.0000000000000000e+00  0.0000000000000000e+00 0.0000000000000000e+00 0.0000000000000000e+00  -5.5325676645303647e-04 1.0452611302457185e-03 0.0000000000000000e+00  -3.8726029573403617e-04 2.0999999999968800e-03 0.0000000000000000e+00  1.7357582937800462e-04 2.0999999999968800e-03 0.0000000000000000e+00  -1.1246116471520662e-04 2.2042572825450740e-03 0.0000000000000000e+00  -1.0028275386416798e-04 -5.6917025770175182e-05 0.0000000000000000e+00  -5.3792001244241635e-04 1.2137615899587041e-03 0.0000000000000000e+00  -5.2686776718332737e-04 8.8140005833155244e-04 0.0000000000000000e+00  -5.5994689551383305e-05 -5.6387770317829890e-05 0.0000000000000000e+00  -3.7917957235399930e-05 2.2039256298169879e-03 0.0000000000000000e+00  0.0000000000000000e+00 0.0000000000000000e+00 0.0000000000000000e+00  0.0000000000000000e+00 0.0000000000000000e+00 0.0000000000000000e+00  0.0000000000000000e+00 0.0000000000000000e+00 0.0000000000000000e+00  0.0000000000000000e+00 0.0000000000000000e+00 0.0000000000000000e+00  0.0000000000000000e+00 0.0000000000000000e+00 0.0000000000000000e+00  0.0000000000000000e+00 0.0000000000000000e+00 0.0000000000000000e+00  0.0000000000000000e+00 0.0000000000000000e+00 0.0000000000000000e+00  0.0000000000000000e+00 0.0000000000000000e+00 0.0000000000000000e+00  0.0000000000000000e+00 0.0000000000000000e+00 0.0000000000000000e+00  0.0000000000000000e+00 0.0000000000000000e+00 0.0000000000000000e+00  0.0000000000000000e+00 0.0000000000000000e+00 0.0000000000000000e+00  0.0000000000000000e+00 0.0000000000000000e+00 0.0000000000000000e+00  0.0000000000000000e+00 0.0000000000000000e+00 0.0000000000000000e+00  0.0000000000000000e+00 0.0000000000000000e+00 0.0000000000000000e+00  0.0000000000000000e+00 0.0000000000000000e+00 0.0000000000000000e+00  0.0000000000000000e+00 0.0000000000000000e+00 0.0000000000000000e+00  0.0000000000000000e+00 0.0000000000000000e+00 0.0000000000000000e+00  0.0000000000000000e+00 0.0000000000000000e+00 0.0000000000000000e+00  0.0000000000000000e+00 0.0000000000000000e+00 0.0000000000000000e+00  0.0000000000000000e+00 0.0000000000000000e+00 0.0000000000000000e+00  0.0000000000000000e+00 0.0000000000000000e+00 0.0000000000000000e+00  0.0000000000000000e+00 0.0000000000000000e+00 0.0000000000000000e+00  0.0000000000000000e+00 0.0000000000000000e+00 0.0000000000000000e+00  0.0000000000000000e+00 0.0000000000000000e+00 0.0000000000000000e+00  0.0000000000000000e+00 0.0000000000000000e+00 0.0000000000000000e+00  0.0000000000000000e+00 0.0000000000000000e+00 0.0000000000000000e+00  0.0000000000000000e+00 0.0000000000000000e+00 0.0000000000000000e+00  0.0000000000000000e+00 0.0000000000000000e+00 0.0000000000000000e+00  0.0000000000000000e+00 0.0000000000000000e+00 0.0000000000000000e+00  0.0000000000000000e+00 0.0000000000000000e+00 0.0000000000000000e+00  0.0000000000000000e+00 0.0000000000000000e+00 0.0000000000000000e+00  0.0000000000000000e+00 0.0000000000000000e+00 0.0000000000000000e+00  0.0000000000000000e+00 0.0000000000000000e+00 0.0000000000000000e+00  0.0000000000000000e+00 0.0000000000000000e+00 0.0000000000000000e+00  0.0000000000000000e+00 0.0000000000000000e+00 0.0000000000000000e+00  0.0000000000000000e+00 0.0000000000000000e+00 0.0000000000000000e+00  0.0000000000000000e+00 0.0000000000000000e+00 0.0000000000000000e+00  0.0000000000000000e+00 0.0000000000000000e+00 0.0000000000000000e+00  0.0000000000000000e+00 0.0000000000000000e+00 0.0000000000000000e+00  0.0000000000000000e+00 0.0000000000000000e+00 0.0000000000000000e+00  0.0000000000000000e+00 0.0000000000000000e+00 0.0000000000000000e+00  0.0000000000000000e+00 0.0000000000000000e+00 0.0000000000000000e+00  0.0000000000000000e+00 0.0000000000000000e+00 0.0000000000000000e+00  0.0000000000000000e+00 0.0000000000000000e+00 0.0000000000000000e+00  0.0000000000000000e+00 0.0000000000000000e+00 0.0000000000000000e+00  0.0000000000000000e+00 0.0000000000000000e+00 0.0000000000000000e+00  0.0000000000000000e+00 0.0000000000000000e+00 0.0000000000000000e+00  0.0000000000000000e+00 0.0000000000000000e+00 0.0000000000000000e+00  0.0000000000000000e+00 0.0000000000000000e+00 0.0000000000000000e+00  0.0000000000000000e+00 0.0000000000000000e+00 0.0000000000000000e+00  0.0000000000000000e+00 0.0000000000000000e+00 0.0000000000000000e+00  0.0000000000000000e+00 0.0000000000000000e+00 0.0000000000000000e+00  0.0000000000000000e+00 0.0000000000000000e+00 0.0000000000000000e+00  0.0000000000000000e+00 0.0000000000000000e+00 0.0000000000000000e+00  0.0000000000000000e+00 0.0000000000000000e+00 0.0000000000000000e+00  0.0000000000000000e+00 0.0000000000000000e+00 0.0000000000000000e+00  0.0000000000000000e+00 0.0000000000000000e+00 0.0000000000000000e+00  0.0000000000000000e+00 0.0000000000000000e+00 0.0000000000000000e+00  0.0000000000000000e+00 0.0000000000000000e+00 0.0000000000000000e+00  0.0000000000000000e+00 0.0000000000000000e+00 0.0000000000000000e+00  0.0000000000000000e+00 0.0000000000000000e+00 0.0000000000000000e+00  0.0000000000000000e+00 0.0000000000000000e+00 0.0000000000000000e+00  0.0000000000000000e+00 0.0000000000000000e+00 0.0000000000000000e+00  0.0000000000000000e+00 0.0000000000000000e+00 0.0000000000000000e+00  0.0000000000000000e+00 0.0000000000000000e+00 0.0000000000000000e+00  0.0000000000000000e+00 0.0000000000000000e+00 0.0000000000000000e+00  0.0000000000000000e+00 0.0000000000000000e+00 0.0000000000000000e+00  0.0000000000000000e+00 0.0000000000000000e+00 0.0000000000000000e+00  0.0000000000000000e+00 0.0000000000000000e+00 0.0000000000000000e+00  0.0000000000000000e+00 0.0000000000000000e+00 0.0000000000000000e+00  0.0000000000000000e+00 0.0000000000000000e+00 0.0000000000000000e+00  0.0000000000000000e+00 0.0000000000000000e+00 0.0000000000000000e+00  0.0000000000000000e+00 0.0000000000000000e+00 0.0000000000000000e+00  0.0000000000000000e+00 0.0000000000000000e+00 0.0000000000000000e+00  0.0000000000000000e+00 0.0000000000000000e+00 0.0000000000000000e+00  0.0000000000000000e+00 0.0000000000000000e+00 0.0000000000000000e+00  0.0000000000000000e+00 0.0000000000000000e+00 0.0000000000000000e+00  0.0000000000000000e+00 0.0000000000000000e+00 0.0000000000000000e+00  0.0000000000000000e+00 0.0000000000000000e+00 0.0000000000000000e+00  0.0000000000000000e+00 0.0000000000000000e+00 0.0000000000000000e+00  0.0000000000000000e+00 0.0000000000000000e+00 0.0000000000000000e+00  0.0000000000000000e+00 0.0000000000000000e+00 0.0000000000000000e+00  0.0000000000000000e+00 0.0000000000000000e+00 0.0000000000000000e+00  0.0000000000000000e+00 0.0000000000000000e+00 0.0000000000000000e+00  0.0000000000000000e+00 0.0000000000000000e+00 0.0000000000000000e+00  0.0000000000000000e+00 0.0000000000000000e+00 0.0000000000000000e+00  0.0000000000000000e+00 0.0000000000000000e+00 0.0000000000000000e+00  0.0000000000000000e+00 0.0000000000000000e+00 0.0000000000000000e+00  0.0000000000000000e+00 0.0000000000000000e+00 0.0000000000000000e+00  0.0000000000000000e+00 0.0000000000000000e+00 0.0000000000000000e+00  0.0000000000000000e+00 0.0000000000000000e+00 0.0000000000000000e+00  0.0000000000000000e+00 0.0000000000000000e+00 0.0000000000000000e+00  0.0000000000000000e+00 0.0000000000000000e+00 0.0000000000000000e+00  0.0000000000000000e+00 0.0000000000000000e+00 0.0000000000000000e+00  0.0000000000000000e+00 0.0000000000000000e+00 0.0000000000000000e+00  0.0000000000000000e+00 0.0000000000000000e+00 0.0000000000000000e+00  0.0000000000000000e+00 0.0000000000000000e+00 0.0000000000000000e+00  0.0000000000000000e+00 0.0000000000000000e+00 0.0000000000000000e+00  0.0000000000000000e+00 0.0000000000000000e+00 0.0000000000000000e+00  -5.0109715182568397e-05 5.2056585652407800e-05 0.0000000000000000e+00  -8.2819846268338088e-05 8.9698141785063502e-05 0.0000000000000000e+00  -1.0969677177207495e-04 1.2162671957665002e-04 0.0000000000000000e+00  -1.3341590420007420e-04 1.5039768459147596e-04 0.0000000000000000e+00  -1.5471274512177420e-04 1.7696419421736904e-04 0.0000000000000000e+00  -1.7424434277623393e-04 2.0207089874011214e-04 0.0000000000000000e+00  -1.9254844654580447e-04 2.2607235560948445e-04 0.0000000000000000e+00  -2.0936752699008681e-04 2.4931676143333335e-04 0.0000000000000000e+00  -2.2514994507855468e-04 2.7193770299981150e-04 0.0000000000000000e+00  -2.4023585991819367e-04 2.9393762943456429e-04 0.0000000000000000e+00  -2.5446941317812936e-04 3.1557912198529667e-04 0.0000000000000000e+00  -2.6809580177732231e-04 3.3672048099097127e-04 0.0000000000000000e+00  -2.8103046004418394e-04 3.5765823927595941e-04 0.0000000000000000e+00  -2.9354555971000944e-04 3.7814473887696793e-04 0.0000000000000000e+00  -3.0555245262674403e-04 3.9846602228097854e-04 0.0000000000000000e+00  -3.1724290202252825e-04 4.1846753996126082e-04 0.0000000000000000e+00  -3.2843595540053350e-04 4.3823210230448643e-04 0.0000000000000000e+00  -3.3930356380567185e-04 4.5771476398085321e-04 0.0000000000000000e+00  -3.4991066218890174e-04 4.7706510066154419e-04 0.0000000000000000e+00  -3.6015157387271754e-04 4.9612785951644973e-04 0.0000000000000000e+00  -3.7011508402162339e-04 5.1500381442902226e-04 0.0000000000000000e+00  -3.7980747644398210e-04 5.3369433367494545e-04 0.0000000000000000e+00  -3.8925481631381332e-04 5.5217000856748423e-04 0.0000000000000000e+00  -3.9845024697345905e-04 5.7045742429556170e-04 0.0000000000000000e+00  -4.0740698485318763e-04 5.8852239794712606e-04 0.0000000000000000e+00  -4.1612456831059241e-04 6.0638242286093305e-04 0.0000000000000000e+00  -4.2461667460804624e-04 6.2400548506724783e-04 0.0000000000000000e+00  -4.3293517383957957e-04 6.4151706274532074e-04 0.0000000000000000e+00  -4.4094893188750855e-04 6.5879904230042516e-04 0.0000000000000000e+00  -4.4872843661214630e-04 6.7588046206765433e-04 0.0000000000000000e+00  -4.5628272274528898e-04 6.9279492786377967e-04 0.0000000000000000e+00  -4.6362484861391193e-04 7.0948557467626040e-04 0.0000000000000000e+00  -4.7069210014062462e-04 7.2599141470644946e-04 0.0000000000000000e+00  -4.7753995291973777e-04 7.4227666558722915e-04 0.0000000000000000e+00  -4.8413803528555996e-04 7.5843194135588978e-04 0.0000000000000000e+00  -4.9043387865836804e-04 7.7439414435137631e-04 0.0000000000000000e+00  -4.9648104618448517e-04 7.9018354700687151e-04 0.0000000000000000e+00  -5.0228146115381927e-04 8.0574267913457575e-04 0.0000000000000000e+00  -5.0775956007529505e-04 8.2119125007772576e-04 0.0000000000000000e+00  -5.1299253762732448e-04 8.3645886851401797e-04 0.0000000000000000e+00  -5.1790300433017294e-04 8.5160524464546975e-04 0.0000000000000000e+00  -5.2253383212117399e-04 8.6654553817737769e-04 0.0000000000000000e+00  -5.3063649761865442e-04 8.9530741327190847e-04 0.0000000000000000e+00  -5.3415705422443327e-04 9.0910403749214165e-04 0.0000000000000000e+00  -5.3738345590502706e-04 9.2289363397356726e-04 0.0000000000000000e+00  -5.4033624336971369e-04 9.3655958113709992e-04 0.0000000000000000e+00  -5.4301459334354029e-04 9.5024572518738123e-04 0.0000000000000000e+00  -5.4535964097548431e-04 9.6390402562282452e-04 0.0000000000000000e+00  -5.4743659798462351e-04 9.7744646963346068e-04 0.0000000000000000e+00  -5.4920685751912407e-04 9.9100571707054475e-04 0.0000000000000000e+00  -5.5068282436023788e-04 1.0045723944427825e-03 0.0000000000000000e+00  -5.5180388577119707e-04 1.0181558571093078e-03 0.0000000000000000e+00  -5.5268232269894090e-04 1.0316808264888618e-03 0.0000000000000000e+00  -5.5348949685142469e-04 1.0588719608926969e-03 0.0000000000000000e+00  -5.5344228661702516e-04 1.0725077938870578e-03 0.0000000000000000e+00  -5.5311310367712856e-04 1.0862462332331727e-03 0.0000000000000000e+00  -5.5248752708066497e-04 1.0999839440551100e-03 0.0000000000000000e+00  -5.5158737794458186e-04 1.1138575559842708e-03 0.0000000000000000e+00  -5.5040201672280887e-04 1.1278287187204343e-03 0.0000000000000000e+00  -5.4892113322039160e-04 1.1418269960360376e-03 0.0000000000000000e+00  -5.4721412037035157e-04 1.1559771159503920e-03 0.0000000000000000e+00  -5.4527006812945438e-04 1.1702562581539916e-03 0.0000000000000000e+00  -5.4301828614962432e-04 1.1846508664462557e-03 0.0000000000000000e+00  -5.4057955785989350e-04 1.1991164261374032e-03 0.0000000000000000e+00  -5.3484347640892578e-04 1.2294665851275584e-03 0.0000000000000000e+00  -5.3153748262749732e-04 1.2453503992779949e-03 0.0000000000000000e+00  -5.2802853414472026e-04 1.2615039582298587e-03 0.0000000000000000e+00  -5.2429384083398859e-04 1.2778432435074536e-03 0.0000000000000000e+00  -5.2043701270419350e-04 1.2944424724902512e-03 0.0000000000000000e+00  -5.1634003535502306e-04 1.3112429758311553e-03 0.0000000000000000e+00  -5.1212317603610189e-04 1.3283296406520367e-03 0.0000000000000000e+00  -5.0774836832519167e-04 1.3456763133745061e-03 0.0000000000000000e+00  -5.0325321460002444e-04 1.3632859348630976e-03 0.0000000000000000e+00  -4.9861728036695863e-04 1.3811243816691779e-03 0.0000000000000000e+00  -4.9394268776499506e-04 1.3992430182067390e-03 0.0000000000000000e+00  -4.8916258455403237e-04 1.4176244538705138e-03 0.0000000000000000e+00  -4.8434938633990182e-04 1.4362763178103189e-03 0.0000000000000000e+00  -4.7950379164689050e-04 1.4552043985059998e-03 0.0000000000000000e+00  -4.7462824463452672e-04 1.4744052163661286e-03 0.0000000000000000e+00  -4.6972444897853028e-04 1.4938567275307776e-03 0.0000000000000000e+00  -4.6483099656403649e-04 1.5135480435600453e-03 0.0000000000000000e+00  -4.5999506639119087e-04 1.5335141895569059e-03 0.0000000000000000e+00  -4.5520884507418172e-04 1.5537272937322466e-03 0.0000000000000000e+00  -4.5047600303702701e-04 1.5741974418957329e-03 0.0000000000000000e+00  -4.4581879714549762e-04 1.5949303259005228e-03 0.0000000000000000e+00  -4.4122379666423813e-04 1.6159194512126557e-03 0.0000000000000000e+00  -4.3678227472998191e-04 1.6371183004259464e-03 0.0000000000000000e+00  -4.3241679128297537e-04 1.6585778904524508e-03 0.0000000000000000e+00  -4.2822152224973825e-04 1.6802307342617356e-03 0.0000000000000000e+00  -4.2414524375540953e-04 1.7021341911898913e-03 0.0000000000000000e+00  -4.2023185487609794e-04 1.7242539730182509e-03 0.0000000000000000e+00  -4.1650079352247872e-04 1.7465404035707781e-03 0.0000000000000000e+00  -4.1295715135136523e-04 1.7690243692986072e-03 0.0000000000000000e+00  -4.0958136535041513e-04 1.7917401820581364e-03 0.0000000000000000e+00  -4.0644975158485107e-04 1.8145724040479806e-03 0.0000000000000000e+00  -4.0348822255263368e-04 1.8376248856529704e-03 0.0000000000000000e+00  -4.0077024447022889e-04 1.8608295895726776e-03 0.0000000000000000e+00  -3.9827317454051110e-04 1.8842418808315824e-03 0.0000000000000000e+00  -3.9601679771360748e-04 1.9077355859541609e-03 0.0000000000000000e+00  -3.9399869150882053e-04 1.9313691467877786e-03 0.0000000000000000e+00  -3.9224666016910391e-04 1.9551660208807016e-03 0.0000000000000000e+00  -3.9075296970464635e-04 1.9790513583497578e-03 0.0000000000000000e+00  -3.8952473571469585e-04 2.0030633419519665e-03 0.0000000000000000e+00  -3.8853545176587614e-04 2.0271834172519944e-03 0.0000000000000000e+00  -3.8790453187520128e-04 2.0513894952375179e-03 0.0000000000000000e+00  -3.8744743878264739e-04 2.0756546118387681e-03 0.0000000000000000e+00  -3.7671367617054022e-04 2.0999999999968800e-03 0.0000000000000000e+00  -3.6620771855168263e-04 2.0999999999968800e-03 0.0000000000000000e+00  -3.5581108724773447e-04 2.0999999999968800e-03 0.0000000000000000e+00  -3.4547955635926594e-04 2.0999999999968800e-03 0.0000000000000000e+00  -3.3518275248933137e-04 2.0999999999968800e-03 0.0000000000000000e+00  -3.2498951063511685e-04 2.0999999999968800e-03 0.0000000000000000e+00  -3.1479618423476807e-04 2.0999999999968800e-03 0.0000000000000000e+00  -3.0461769284487747e-04 2.0999999999968800e-03 0.0000000000000000e+00  -2.9443122281003301e-04 2.0999999999968800e-03 0.0000000000000000e+00  -2.8430321619311633e-04 2.0999999999968800e-03 0.0000000000000000e+00  -2.7414065266126106e-04 2.0999999999968800e-03 0.0000000000000000e+00  -2.6396626257734688e-04 2.0999999999968800e-03 0.0000000000000000e+00  -2.5377713225991429e-04 2.0999999999968800e-03 0.0000000000000000e+00  -2.4357283722439301e-04 2.0999999999968800e-03 0.0000000000000000e+00  -2.3334814458780129e-04 2.0999999999968800e-03 0.0000000000000000e+00  -2.2308452904792666e-04 2.0999999999968800e-03 0.0000000000000000e+00  -2.1279608568234109e-04 2.0999999999968800e-03 0.0000000000000000e+00  -2.0248195952731696e-04 2.0999999999968800e-03 0.0000000000000000e+00  -1.9214450960508182e-04 2.0999999999968800e-03 0.0000000000000000e+00  -1.8178333669289088e-04 2.0999999999968800e-03 0.0000000000000000e+00  -1.7140094300417417e-04 2.0999999999968800e-03 0.0000000000000000e+00  -1.6099750761148956e-04 2.0999999999968800e-03 0.0000000000000000e+00  -1.5057919122576035e-04 2.0999999999968800e-03 0.0000000000000000e+00  -1.4016060406080161e-04 2.0999999999968800e-03 0.0000000000000000e+00  -1.2972707455355644e-04 2.0999999999968800e-03 0.0000000000000000e+00  -1.1930096904786227e-04 2.0999999999968800e-03 0.0000000000000000e+00  -1.0889629261877530e-04 2.0999999999968800e-03 0.0000000000000000e+00  -9.8501388151866210e-05 2.0999999999968800e-03 0.0000000000000000e+00  -8.8164275879533307e-05 2.0999999999968800e-03 0.0000000000000000e+00  -7.7865336965112362e-05 2.0999999999968800e-03 0.0000000000000000e+00  -6.7611769824510955e-05 2.0999999999968800e-03 0.0000000000000000e+00  -5.7436965600658612e-05 2.0999999999968800e-03 0.0000000000000000e+00  -4.7334472235730776e-05 2.0999999999968800e-03 0.0000000000000000e+00  -3.7292234613695823e-05 2.0999999999968800e-03 0.0000000000000000e+00  -2.7411419797737143e-05 2.0999999999968800e-03 0.0000000000000000e+00  -1.7620506280882615e-05 2.0999999999968800e-03 0.0000000000000000e+00  -7.9600354351627776e-06 2.0999999999968800e-03 0.0000000000000000e+00  1.5500613341460239e-06 2.0999999999968800e-03 0.0000000000000000e+00  1.0943409926959321e-05 2.0999999999968800e-03 0.0000000000000000e+00  2.0129639257656517e-05 2.0999999999968800e-03 0.0000000000000000e+00  2.9121212775316183e-05 2.0999999999968800e-03 0.0000000000000000e+00  3.7898870329338548e-05 2.0999999999968800e-03 0.0000000000000000e+00  4.6495973613699043e-05 2.0999999999968800e-03 0.0000000000000000e+00  5.4905351758938523e-05 2.0999999999968800e-03 0.0000000000000000e+00  6.3021808337890918e-05 2.0999999999968800e-03 0.0000000000000000e+00  7.0952440430887813e-05 2.0999999999968800e-03 0.0000000000000000e+00  7.8640936299004494e-05 2.0999999999968800e-03 0.0000000000000000e+00  8.5980335619217436e-05 2.0999999999968800e-03 0.0000000000000000e+00  9.3102332658959533e-05 2.0999999999968800e-03 0.0000000000000000e+00  9.9998291656766989e-05 2.0999999999968800e-03 0.0000000000000000e+00  1.0660062048603541e-04 2.0999999999968800e-03 0.0000000000000000e+00  1.1287813970312297e-04 2.0999999999968800e-03 0.0000000000000000e+00  1.1887793866701278e-04 2.0999999999968800e-03 0.0000000000000000e+00  1.2463319151053608e-04 2.0999999999968800e-03 0.0000000000000000e+00  1.3006653648446435e-04 2.0999999999968800e-03 0.0000000000000000e+00  1.3520474292787622e-04 2.0999999999968800e-03 0.0000000000000000e+00  1.4008178990915332e-04 2.0999999999968800e-03 0.0000000000000000e+00  1.4470269652554617e-04 2.0999999999968800e-03 0.0000000000000000e+00  1.4896549850371087e-04 2.0999999999968800e-03 0.0000000000000000e+00  1.5301074816580486e-04 2.0999999999968800e-03 0.0000000000000000e+00  1.5676831453442878e-04 2.0999999999968800e-03 0.0000000000000000e+00  1.6026042756650549e-04 2.0999999999968800e-03 0.0000000000000000e+00  1.6346626150491285e-04 2.0999999999968800e-03 0.0000000000000000e+00  1.6647427412891635e-04 2.0999999999968800e-03 0.0000000000000000e+00  1.6925560714191299e-04 2.0999999999968800e-03 0.0000000000000000e+00  