<?xml version="1.0"?>
<VTKFile type="UnstructuredGrid"  version="0.1"  >
<UnstructuredGrid>
<Piece  NumberOfPoints="15540" NumberOfCells="30546">
<Points>
<DataArray  type="Float64"  NumberOfComponents="3"  format="ascii">0 0 0  -0.5 -0.5 0  0.5 -0.5 0  0.5 0 0  0.5 0.5 0  -0.5 0.5 0  -0.5 0.0001 0  -0.5 -0.0001 0  0.5 0.1 0  0.5 -0.1 0  -0.5 -0.1 0  -0.5 0.1 0  -0.4900000000000277 -0.5 0  -0.4800000000000555 -0.5 0  -0.4700000000000832 -0.5 0  -0.4600000000001109 -0.5 0  -0.4500000000001387 -0.5 0  -0.4400000000001664 -0.5 0  -0.4300000000001942 -0.5 0  -0.4200000000002219 -0.5 0  -0.4100000000002497 -0.5 0  -0.4000000000002774 -0.5 0  -0.3900000000003052 -0.5 0  -0.3800000000003328 -0.5 0  -0.3700000000003606 -0.5 0  -0.3600000000003883 -0.5 0  -0.3500000000004161 -0.5 0  -0.3400000000004438 -0.5 0  -0.3300000000004716 -0.5 0  -0.3200000000004993 -0.5 0  -0.3100000000005271 -0.5 0  -0.3000000000005548 -0.5 0  -0.2900000000005825 -0.5 0  -0.2800000000006103 -0.5 0  -0.2700000000006381 -0.5 0  -0.2600000000006658 -0.5 0  -0.2500000000006935 -0.5 0  -0.2400000000007212 -0.5 0  -0.230000000000749 -0.5 0  -0.2200000000007767 -0.5 0  -0.2100000000008044 -0.5 0  -0.2000000000008322 -0.5 0  -0.19000000000086 -0.5 0  -0.1800000000008877 -0.5 0  -0.1700000000009154 -0.5 0  -0.1600000000009431 -0.5 0  -0.1500000000009709 -0.5 0  -0.1400000000009986 -0.5 0  -0.1300000000010264 -0.5 0  -0.1200000000010541 -0.5 0  -0.1100000000010818 -0.5 0  -0.1000000000011096 -0.5 0  -0.09000000000113734 -0.5 0  -0.08000000000116503 -0.5 0  -0.07000000000119283 -0.5 0  -0.06000000000122058 -0.5 0  -0.05000000000124827 -0.5 0  -0.04000000000127607 -0.5 0  -0.03000000000130376 -0.5 0  -0.02000000000133151 -0.5 0  -0.01000000000135925 -0.5 0  -1.376121439022882e-12 -0.5 0  0.009999999998640763 -0.5 0  0.01999999999866864 -0.5 0  0.02999999999869629 -0.5 0  0.03999999999872406 -0.5 0  0.04999999999875182 -0.5 0  0.05999999999877947 -0.5 0  0.06999999999880724 -0.5 0  0.079999999998835 -0.5 0  0.08999999999886266 -0.5 0  0.09999999999889042 -0.5 0  0.1099999999989182 -0.5 0  0.1199999999989459 -0.5 0  0.1299999999989737 -0.5 0  0.1399999999990014 -0.5 0  0.1499999999990291 -0.5 0  0.1599999999990568 -0.5 0  0.1699999999990847 -0.5 0  0.1799999999991124 -0.5 0  0.1899999999991401 -0.5 0  0.1999999999991678 -0.5 0  0.2099999999991955 -0.5 0  0.2199999999992234 -0.5 0  0.2299999999992511 -0.5 0  0.2399999999992788 -0.5 0  0.2499999999993066 -0.5 0  0.2599999999993342 -0.5 0  0.269999999999362 -0.5 0  0.2799999999993897 -0.5 0  0.2899999999994175 -0.5 0  0.2999999999994452 -0.5 0  0.3099999999994729 -0.5 0  0.3199999999995007 -0.5 0  0.3299999999995284 -0.5 0  0.3399999999995562 -0.5 0  0.3499999999995839 -0.5 0  0.3599999999996116 -0.5 0  0.3699999999996393 -0.5 0  0.379999999999667 -0.5 0  0.3899999999996949 -0.5 0  0.3999999999997226 -0.5 0  0.4099999999997503 -0.5 0  0.419999999999778 -0.5 0  0.4299999999998058 -0.5 0  0.4399999999998336 -0.5 0  0.4499999999998613 -0.5 0  0.4599999999998891 -0.5 0  0.4699999999999167 -0.5 0  0.4799999999999445 -0.5 0  0.4899999999999722 -0.5 0  0.5 -0.4902110204681464 0  0.5 -0.4804459958734807 0  0.5 -0.4707048677450883 0  0.5 -0.4609875815766065 0  0.5 -0.4512940759251849 0  0.5 -0.4416242912883993 0  0.5 -0.4319781678689807 0  0.5 -0.4223556545383647 0  0.5 -0.4127566896324213 0  0.5 -0.4031812128200121 0  0.5 -0.3936291733057916 0  0.5 -0.3841005081172659 0  0.5 -0.3745951585781932 0  0.5 -0.3651130778999337 0  0.5 -0.3556541993788045 0  0.5 -0.3462184677228392 0  0.5 -0.3368058273705318 0  0.5 -0.3274162224888609 0  0.5 -0.3180495969712945 0  0.5 -0.3087058944357755 0  0.5 -0.299385058222682 0  0.5 -0.2900870313927414 0  0.5 -0.2808117567250807 0  0.5 -0.2715591844628491 0  0.5 -0.2623292564012653 0  0.5 -0.253121909553727 0  0.5 -0.2439371050851549 0  0.5 -0.2347747685524501 0  0.5 -0.2256348634421331 0  0.5 -0.2165173209784076 0  0.5 -0.207422087829958 0  0.5 -0.1983491207029381 0  0.5 -0.1892983550950482 0  0.5 -0.1802697378305253 0  0.5 -0.1712632154965152 0  0.5 -0.1622787344187354 0  0.5 -0.1533162406595534 0  0.5 -0.1443756800160514 0  0.5 -0.1354569980180493 0  0.5 -0.1265601399261414 0  0.5 -0.1176850622761093 0  0.5 -0.1088317009011999 0  0.5 -0.09166666666668973 0  0.5 -0.08333333333337943 0  0.5 -0.07500000000006915 0  0.5 -0.06666666666675886 0  0.5 -0.05833333333344858 0  0.5 -0.05000000000013693 0  0.5 -0.04166666666678191 0  0.5 -0.03333333333342643 0  0.5 -0.02500000000006916 0  0.5 -0.01666666666671188 0  0.5 -0.00833333333335548 0  0.5 0.008333333333318314 0  0.5 0.01666666666663358 0  0.5 0.02499999999994162 0  0.5 0.03333333333325101 0  0.5 0.04166666666655769 0  0.5 0.04999999999986843 0  0.5 0.05833333333322258 0  0.5 0.06666666666657715 0  0.5 0.07499999999993352 0  0.5 0.08333333333328992 0  0.5 0.09166666666664541 0  0.5 0.1088317009011616 0  0.5 0.1176850622760307 0  0.5 0.1265601399260203 0  0.5 0.1354569980178909 0  0.5 0.1443756800158549 0  0.5 0.153316240659315 0  0.5 0.1622787344184454 0  0.5 0.1712632154961752 0  0.5 0.1802697378301332 0  0.5 0.1892983550946039 0  0.5 0.1983491207024433 0  0.5 0.2074220878294123 0  0.5 0.216517320977811 0  0.5 0.2256348634414833 0  0.5 0.2347747685517479 0  0.5 0.2439371050844009 0  0.5 0.2531219095529224 0  0.5 0.2623292564004089 0  0.5 0.2715591844619371 0  0.5 0.2808117567241139 0  0.5 0.290087031391723 0  0.5 0.2993850582216101 0  0.5 0.3087058944347426 0  0.5 0.3180495969703129 0  0.5 0.3274162224879299 0  0.5 0.3368058273696494 0  0.5 0.3462184677220051 0  0.5 0.3556541993780186 0  0.5 0.3651130778991989 0  0.5 0.3745951585775107 0  0.5 0.3841005081166359 0  0.5 0.3936291733052134 0  0.5 0.4031812128194852 0  0.5 0.412756689631945 0  0.5 0.4223556545379392 0  0.5 0.431978167868607 0  0.5 0.4416242912880781 0  0.5 0.4512940759249164 0  0.5 0.4609875815763912 0  0.5 0.4707048677449264 0  0.5 0.4804459958733726 0  0.5 0.4902110204680924 0  0.4900000000000277 0.5 0  0.4800000000000555 0.5 0  0.4700000000000832 0.5 0  0.4600000000001109 0.5 0  0.4500000000001387 0.5 0  0.4400000000001664 0.5 0  0.4300000000001942 0.5 0  0.4200000000002219 0.5 0  0.4100000000002497 0.5 0  0.4000000000002774 0.5 0  0.3900000000003052 0.5 0  0.3800000000003328 0.5 0  0.3700000000003606 0.5 0  0.3600000000003883 0.5 0  0.3500000000004161 0.5 0  0.3400000000004438 0.5 0  0.3300000000004716 0.5 0  0.3200000000004993 0.5 0  0.3100000000005271 0.5 0  0.3000000000005548 0.5 0  0.2900000000005825 0.5 0  0.2800000000006103 0.5 0  0.2700000000006381 0.5 0  0.2600000000006658 0.5 0  0.2500000000006935 0.5 0  0.2400000000007212 0.5 0  0.230000000000749 0.5 0  0.2200000000007767 0.5 0  0.2100000000008044 0.5 0  0.2000000000008322 0.5 0  0.19000000000086 0.5 0  0.1800000000008877 0.5 0  0.1700000000009154 0.5 0  0.1600000000009431 0.5 0  0.1500000000009709 0.5 0  0.1400000000009986 0.5 0  0.1300000000010264 0.5 0  0.1200000000010541 0.5 0  0.1100000000010818 0.5 0  0.1000000000011096 0.5 0  0.09000000000113734 0.5 0  0.08000000000116503 0.5 0  0.07000000000119283 0.5 0  0.06000000000122058 0.5 0  0.05000000000124827 0.5 0  0.04000000000127607 0.5 0  0.03000000000130376 0.5 0  0.02000000000133151 0.5 0  0.01000000000135925 0.5 0  1.376121439022882e-12 0.5 0  -0.009999999998640763 0.5 0  -0.01999999999866864 0.5 0  -0.02999999999869629 0.5 0  -0.03999999999872406 0.5 0  -0.04999999999875182 0.5 0  -0.05999999999877947 0.5 0  -0.06999999999880724 0.5 0  -0.079999999998835 0.5 0  -0.08999999999886266 0.5 0  -0.09999999999889042 0.5 0  -0.1099999999989182 0.5 0  -0.1199999999989459 0.5 0  -0.1299999999989737 0.5 0  -0.1399999999990014 0.5 0  -0.1499999999990291 0.5 0  -0.1599999999990568 0.5 0  -0.1699999999990847 0.5 0  -0.1799999999991124 0.5 0  -0.1899999999991401 0.5 0  -0.1999999999991678 0.5 0  -0.2099999999991955 0.5 0  -0.2199999999992234 0.5 0  -0.2299999999992511 0.5 0  -0.2399999999992788 0.5 0  -0.2499999999993066 0.5 0  -0.2599999999993342 0.5 0  -0.269999999999362 0.5 0  -0.2799999999993897 0.5 0  -0.2899999999994175 0.5 0  -0.2999999999994452 0.5 0  -0.3099999999994729 0.5 0  -0.3199999999995007 0.5 0  -0.3299999999995284 0.5 0  -0.3399999999995562 0.5 0  -0.3499999999995839 0.5 0  -0.3599999999996116 0.5 0  -0.3699999999996393 0.5 0  -0.379999999999667 0.5 0  -0.3899999999996949 0.5 0  -0.3999999999997226 0.5 0  -0.4099999999997503 0.5 0  -0.419999999999778 0.5 0  -0.4299999999998058 0.5 0  -0.4399999999998336 0.5 0  -0.4499999999998613 0.5 0  -0.4599999999998891 0.5 0  -0.4699999999999167 0.5 0  -0.4799999999999445 0.5 0  -0.4899999999999722 0.5 0  -0.5 0.4902110204681464 0  -0.5 0.4804459958734807 0  -0.5 0.4707048677450883 0  -0.5 0.4609875815766065 0  -0.5 0.4512940759251849 0  -0.5 0.4416242912883993 0  -0.5 0.4319781678689807 0  -0.5 0.4223556545383647 0  -0.5 0.4127566896324213 0  -0.5 0.4031812128200121 0  -0.5 0.3936291733057916 0  -0.5 0.3841005081172659 0  -0.5 0.3745951585781932 0  -0.5 0.3651130778999337 0  -0.5 0.3556541993788045 0  -0.5 0.3462184677228392 0  -0.5 0.3368058273705318 0  -0.5 0.3274162224888609 0  -0.5 0.3180495969712945 0  -0.5 0.3087058944357755 0  -0.5 0.299385058222682 0  -0.5 0.2900870313927414 0  -0.5 0.2808117567250807 0  -0.5 0.2715591844628491 0  -0.5 0.2623292564012653 0  -0.5 0.253121909553727 0  -0.5 0.2439371050851549 0  -0.5 0.2347747685524501 0  -0.5 0.2256348634421331 0  -0.5 0.2165173209784076 0  -0.5 0.207422087829958 0  -0.5 0.1983491207029381 0  -0.5 0.1892983550950482 0  -0.5 0.1802697378305253 0  -0.5 0.1712632154965152 0  -0.5 0.1622787344187354 0  -0.5 0.1533162406595534 0  -0.5 0.1443756800160514 0  -0.5 0.1354569980180493 0  -0.5 0.1265601399261414 0  -0.5 0.1176850622761093 0  -0.5 0.1088317009011999 0  -0.5 0.09167500000001694 0  -0.5 0.08335000000003931 0  -0.5 0.07502500000006167 0  -0.5 0.06670000000008947 0  -0.5 0.05837500000011001 0  -0.5 0.0500500000001328 0  -0.5 0.0417250000001127 0  -0.5 0.03340000000008944 0  -0.5 0.02507500000006573 0  -0.5 0.01675000000004653 0  -0.5 0.008425000000027341 
[...]
<PointData  Vectors="f_7"> 
<DataArray  type="Float64"  Name="f_7"  NumberOfComponents="3" format="ascii">-9.3203660339911165e-05 3.3821018062913630e-04 0.0000000000000000e+00  0.0000000000000000e+00 0.0000000000000000e+00 0.0000000000000000e+00  0.0000000000000000e+00 0.0000000000000000e+00 0.0000000000000000e+00  -1.8322394072171550e-04 3.4858837489889030e-04 0.0000000000000000e+00  -1.2958074249445862e-04 7.0000000000000541e-04 0.0000000000000000e+00  5.9403473114467064e-05 7.0000000000000541e-04 0.0000000000000000e+00  -3.7339882907668501e-05 7.3505168437375051e-04 0.0000000000000000e+00  -3.2984487398654471e-05 -1.8933684328995726e-05 0.0000000000000000e+00  -1.7829543464834780e-04 4.0533303890201406e-04 0.0000000000000000e+00  -1.7449517805932633e-04 2.9336095567703853e-04 0.0000000000000000e+00  -1.8015435661547791e-05 -1.8751061487485161e-05 0.0000000000000000e+00  -1.2066897781377236e-05 7.3493574421447676e-04 0.0000000000000000e+00  0.0000000000000000e+00 0.0000000000000000e+00 0.0000000000000000e+00  0.0000000000000000e+00 0.0000000000000000e+00 0.0000000000000000e+00  0.0000000000000000e+00 0.0000000000000000e+00 0.0000000000000000e+00  0.0000000000000000e+00 0.0000000000000000e+00 0.0000000000000000e+00  0.0000000000000000e+00 0.0000000000000000e+00 0.0000000000000000e+00  0.0000000000000000e+00 0.0000000000000000e+00 0.0000000000000000e+00  0.0000000000000000e+00 0.0000000000000000e+00 0.0000000000000000e+00  0.0000000000000000e+00 0.0000000000000000e+00 0.0000000000000000e+00  0.0000000000000000e+00 0.0000000000000000e+00 0.0000000000000000e+00  0.0000000000000000e+00 0.0000000000000000e+00 0.0000000000000000e+00  0.0000000000000000e+00 0.0000000000000000e+00 0.0000000000000000e+00  0.0000000000000000e+00 0.0000000000000000e+00 0.0000000000000000e+00  0.0000000000000000e+00 0.0000000000000000e+00 0.0000000000000000e+00  0.0000000000000000e+00 0.0000000000000000e+00 0.0000000000000000e+00  0.0000000000000000e+00 0.0000000000000000e+00 0.0000000000000000e+00  0.0000000000000000e+00 0.0000000000000000e+00 0.0000000000000000e+00  0.0000000000000000e+00 0.0000000000000000e+00 0.0000000000000000e+00  0.0000000000000000e+00 0.0000000000000000e+00 0.0000000000000000e+00  0.0000000000000000e+00 0.0000000000000000e+00 0.0000000000000000e+00  0.0000000000000000e+00 0.0000000000000000e+00 0.0000000000000000e+00  0.0000000000000000e+00 0.0000000000000000e+00 0.0000000000000000e+00  0.0000000000000000e+00 0.0000000000000000e+00 0.0000000000000000e+00  0.0000000000000000e+00 0.0000000000000000e+00 0.0000000000000000e+00  0.0000000000000000e+00 0.0000000000000000e+00 0.0000000000000000e+00  0.0000000000000000e+00 0.0000000000000000e+00 0.0000000000000000e+00  0.0000000000000000e+00 0.0000000000000000e+00 0.0000000000000000e+00  0.0000000000000000e+00 0.0000000000000000e+00 0.0000000000000000e+00  0.0000000000000000e+00 0.0000000000000000e+00 0.0000000000000000e+00  0.0000000000000000e+00 0.0000000000000000e+00 0.0000000000000000e+00  0.0000000000000000e+00 0.0000000000000000e+00 0.0000000000000000e+00  0.0000000000000000e+00 0.0000000000000000e+00 0.0000000000000000e+00  0.0000000000000000e+00 0.0000000000000000e+00 0.0000000000000000e+00  0.0000000000000000e+00 0.0000000000000000e+00 0.0000000000000000e+00  0.0000000000000000e+00 0.0000000000000000e+00 0.0000000000000000e+00  0.0000000000000000e+00 0.0000000000000000e+00 0.0000000000000000e+00  0.0000000000000000e+00 0.0000000000000000e+00 0.0000000000000000e+00  0.0000000000000000e+00 0.0000000000000000e+00 0.0000000000000000e+00  0.0000000000000000e+00 0.0000000000000000e+00 0.0000000000000000e+00  0.0000000000000000e+00 0.0000000000000000e+00 0.0000000000000000e+00  0.0000000000000000e+00 0.0000000000000000e+00 0.0000000000000000e+00  0.0000000000000000e+00 0.0000000000000000e+00 0.0000000000000000e+00  0.0000000000000000e+00 0.0000000000000000e+00 0.0000000000000000e+00  0.0000000000000000e+00 0.0000000000000000e+00 0.0000000000000000e+00  0.0000000000000000e+00 0.0000000000000000e+00 0.0000000000000000e+00  0.0000000000000000e+00 0.0000000000000000e+00 0.0000000000000000e+00  0.0000000000000000e+00 0.0000000000000000e+00 0.0000000000000000e+00  0.0000000000000000e+00 0.0000000000000000e+00 0.0000000000000000e+00  0.0000000000000000e+00 0.0000000000000000e+00 0.0000000000000000e+00  0.0000000000000000e+00 0.0000000000000000e+00 0.0000000000000000e+00  0.0000000000000000e+00 0.0000000000000000e+00 0.0000000000000000e+00  0.0000000000000000e+00 0.0000000000000000e+00 0.0000000000000000e+00  0.0000000000000000e+00 0.0000000000000000e+00 0.0000000000000000e+00  0.0000000000000000e+00 0.0000000000000000e+00 0.0000000000000000e+00  0.0000000000000000e+00 0.0000000000000000e+00 0.0000000000000000e+00  0.0000000000000000e+00 0.0000000000000000e+00 0.0000000000000000e+00  0.0000000000000000e+00 0.0000000000000000e+00 0.0000000000000000e+00  0.0000000000000000e+00 0.0000000000000000e+00 0.0000000000000000e+00  0.0000000000000000e+00 0.0000000000000000e+00 0.0000000000000000e+00  0.0000000000000000e+00 0.0000000000000000e+00 0.0000000000000000e+00  0.0000000000000000e+00 0.0000000000000000e+00 0.0000000000000000e+00  0.0000000000000000e+00 0.0000000000000000e+00 0.0000000000000000e+00  0.0000000000000000e+00 0.0000000000000000e+00 0.0000000000000000e+00  0.0000000000000000e+00 0.0000000000000000e+00 0.0000000000000000e+00  0.0000000000000000e+00 0.0000000000000000e+00 0.0000000000000000e+00  0.0000000000000000e+00 0.0000000000000000e+00 0.0000000000000000e+00  0.0000000000000000e+00 0.0000000000000000e+00 0.0000000000000000e+00  0.0000000000000000e+00 0.0000000000000000e+00 0.0000000000000000e+00  0.0000000000000000e+00 0.0000000000000000e+00 0.0000000000000000e+00  0.0000000000000000e+00 0.0000000000000000e+00 0.0000000000000000e+00  0.0000000000000000e+00 0.0000000000000000e+00 0.0000000000000000e+00  0.0000000000000000e+00 0.0000000000000000e+00 0.0000000000000000e+00  0.0000000000000000e+00 0.0000000000000000e+00 0.0000000000000000e+00  0.0000000000000000e+00 0.0000000000000000e+00 0.0000000000000000e+00  0.0000000000000000e+00 0.0000000000000000e+00 0.0000000000000000e+00  0.0000000000000000e+00 0.0000000000000000e+00 0.0000000000000000e+00  0.0000000000000000e+00 0.0000000000000000e+00 0.0000000000000000e+00  0.0000000000000000e+00 0.0000000000000000e+00 0.0000000000000000e+00  0.0000000000000000e+00 0.0000000000000000e+00 0.0000000000000000e+00  0.0000000000000000e+00 0.0000000000000000e+00 0.0000000000000000e+00  0.0000000000000000e+00 0.0000000000000000e+00 0.0000000000000000e+00  0.0000000000000000e+00 0.0000000000000000e+00 0.0000000000000000e+00  0.0000000000000000e+00 0.0000000000000000e+00 0.0000000000000000e+00  0.0000000000000000e+00 0.0000000000000000e+00 0.0000000000000000e+00  0.0000000000000000e+00 0.0000000000000000e+00 0.0000000000000000e+00  0.0000000000000000e+00 0.0000000000000000e+00 0.0000000000000000e+00  0.0000000000000000e+00 0.0000000000000000e+00 0.0000000000000000e+00  0.0000000000000000e+00 0.0000000000000000e+00 0.0000000000000000e+00  0.0000000000000000e+00 0.0000000000000000e+00 0.0000000000000000e+00  0.0000000000000000e+00 0.0000000000000000e+00 0.0000000000000000e+00  0.0000000000000000e+00 0.0000000000000000e+00 0.0000000000000000e+00  0.0000000000000000e+00 0.0000000000000000e+00 0.0000000000000000e+00  0.0000000000000000e+00 0.0000000000000000e+00 0.0000000000000000e+00  0.0000000000000000e+00 0.0000000000000000e+00 0.0000000000000000e+00  0.0000000000000000e+00 0.0000000000000000e+00 0.0000000000000000e+00  0.0000000000000000e+00 0.0000000000000000e+00 0.0000000000000000e+00  0.0000000000000000e+00 0.0000000000000000e+00 0.0000000000000000e+00  0.0000000000000000e+00 0.0000000000000000e+00 0.0000000000000000e+00  0.0000000000000000e+00 0.0000000000000000e+00 0.0000000000000000e+00  0.0000000000000000e+00 0.0000000000000000e+00 0.0000000000000000e+00  -1.6499951539944460e-05 1.7122055910621117e-05 0.0000000000000000e+00  -2.7327212989107929e-05 2.9521778469374464e-05 0.0000000000000000e+00  -3.6250083545173960e-05 4.0047023300259615e-05 0.0000000000000000e+00  -4.4146536587929282e-05 4.9549729696186087e-05 0.0000000000000000e+00  -5.1246196560641343e-05 5.8331497009743299e-05 0.0000000000000000e+00  -5.7762258353663990e-05 6.6637802586056526e-05 0.0000000000000000e+00  -6.3870620464450905e-05 7.4583737161832919e-05 0.0000000000000000e+00  -6.9482744830678047e-05 8.2286213714668417e-05 0.0000000000000000e+00  -7.4747485296746400e-05 8.9786878446019455e-05 0.0000000000000000e+00  -7.9778031598931893e-05 9.7085084065123403e-05 0.0000000000000000e+00  -8.4520569724616751e-05 1.0426832327013790e-04 0.0000000000000000e+00  -8.9058127795309342e-05 1.1128881693129092e-04 0.0000000000000000e+00  -9.3360906609593836e-05 1.1824572922187069e-04 0.0000000000000000e+00  -9.7521343052969932e-05 1.2505501890672796e-04 0.0000000000000000e+00  -1.0150902212539827e-04 1.3181263072321956e-04 0.0000000000000000e+00  -1.0538842297031608e-04 1.3846608912525940e-04 0.0000000000000000e+00  -1.0909901543381427e-04 1.4504417500958784e-04 0.0000000000000000e+00  -1.1269885030206451e-04 1.5153026607527781e-04 0.0000000000000000e+00  -1.1620947484048060e-04 1.5797498614393562e-04 0.0000000000000000e+00  -1.1959604754147077e-04 1.6432664805780172e-04 0.0000000000000000e+00  -1.2288838901682524e-04 1.7061839207138234e-04 0.0000000000000000e+00  -1.2608851879739196e-04 1.7685133130627718e-04 0.0000000000000000e+00  -1.2920611432156999e-04 1.8301497220468978e-04 0.0000000000000000e+00  -1.3223857282061125e-04 1.8911848670678620e-04 0.0000000000000000e+00  -1.3519072046407274e-04 1.9515044690264323e-04 0.0000000000000000e+00  -1.3806258089647008e-04 2.0111668898232900e-04 0.0000000000000000e+00  -1.4085881794587333e-04 2.0700658074624935e-04 0.0000000000000000e+00  -1.4359671183755338e-04 2.1286151339844559e-04 0.0000000000000000e+00  -1.4623343589745014e-04 2.1864288674067314e-04 0.0000000000000000e+00  -1.4879251952775759e-04 2.2435985435991933e-04 0.0000000000000000e+00  -1.5127699096271677e-04 2.3002360710878072e-04 0.0000000000000000e+00  -1.5369139769812781e-04 2.3561511915098069e-04 0.0000000000000000e+00  -1.5601526088305324e-04 2.4114736998834621e-04 0.0000000000000000e+00  -1.5826670732055402e-04 2.4660858245120732e-04 0.0000000000000000e+00  -1.6043619478238685e-04 2.5202816987815712e-04 0.0000000000000000e+00  -1.6250655916689080e-04 2.5738571567866071e-04 0.0000000000000000e+00  -1.6449534659875378e-04 2.6268740633317577e-04 0.0000000000000000e+00  -1.6640317156408556e-04 2.6791455259932970e-04 0.0000000000000000e+00  -1.6820541394767672e-04 2.7310623584161735e-04 0.0000000000000000e+00  -1.6992719044434443e-04 2.7823941948207793e-04 0.0000000000000000e+00  -1.7154330415271066e-04 2.8333379586552402e-04 0.0000000000000000e+00  -1.7306789230209544e-04 2.8836120310681950e-04 0.0000000000000000e+00  -1.7573702525905166e-04 2.9804381812214545e-04 0.0000000000000000e+00  -1.7689762971655499e-04 3.0269097206317051e-04 0.0000000000000000e+00  -1.7796193095473534e-04 3.0733623249176039e-04 0.0000000000000000e+00  -1.7893658757303622e-04 3.1194146607487708e-04 0.0000000000000000e+00  -1.7982111581433494e-04 3.1655358767376687e-04 0.0000000000000000e+00  -1.8059635118457593e-04 3.2115702089870874e-04 0.0000000000000000e+00  -1.8128372194107774e-04 3.2572289640929664e-04 0.0000000000000000e+00  -1.8187057840451565e-04 3.3029449510876894e-04 0.0000000000000000e+00  -1.8236095857368105e-04 3.3486854890650970e-04 0.0000000000000000e+00  -1.8273479530462518e-04 3.3944830232307430e-04 0.0000000000000000e+00  -1.8302922417910621e-04 3.4400916118575517e-04 0.0000000000000000e+00  -1.8330705741112277e-04 3.5317752140262689e-04 0.0000000000000000e+00  -1.8329852155404573e-04 3.5777469008488257e-04 0.0000000000000000e+00  -1.8319774401778013e-04 3.6240530902394310e-04 0.0000000000000000e+00  -1.8299976730164034e-04 3.6703551810039390e-04 0.0000000000000000e+00  -1.8271199549666379e-04 3.7171014202300976e-04 0.0000000000000000e+00  -1.8233115792703049e-04 3.7641638154528963e-04 0.0000000000000000e+00  -1.8185363956227071e-04 3.8113118368626649e-04 0.0000000000000000e+00  -1.8130250118597325e-04 3.8589532899158103e-04 0.0000000000000000e+00  -1.8067440812868487e-04 3.9070122796705818e-04 0.0000000000000000e+00  -1.7994604605820670e-04 3.9554396600751876e-04 0.0000000000000000e+00  -1.7915662486526991e-04 4.0040943737839902e-04 0.0000000000000000e+00  -1.7729885754306010e-04 4.1061010446268579e-04 0.0000000000000000e+00  -1.7622751690948165e-04 4.1594529612184994e-04 0.0000000000000000e+00  -1.7509042188682846e-04 4.2136808320850398e-04 0.0000000000000000e+00  -1.7388003734704964e-04 4.2685037930267623e-04 0.0000000000000000e+00  -1.7263039472705441e-04 4.3241675572612353e-04 0.0000000000000000e+00  -1.7130292292545434e-04 4.3804815107405790e-04 0.0000000000000000e+00  -1.6993691268369686e-04 4.4377188420832817e-04 0.0000000000000000e+00  -1.6851988724595976e-04 4.4957948377813688e-04 0.0000000000000000e+00  -1.6706406578753839e-04 4.5547119763532726e-04 0.0000000000000000e+00  -1.6556258696349364e-04 4.6143666628364047e-04 0.0000000000000000e+00  -1.6404899860492862e-04 4.6749216032403483e-04 0.0000000000000000e+00  -1.6250150337041651e-04 4.7363194197452493e-04 0.0000000000000000e+00  -1.6094387194489493e-04 4.7985843616858302e-04 0.0000000000000000e+00  -1.5937588666953728e-04 4.8617360623790114e-04 0.0000000000000000e+00  -1.5779843244243205e-04 4.9257634504835490e-04 0.0000000000000000e+00  -1.5621231660373661e-04 4.9905874526643779e-04 0.0000000000000000e+00  -1.5462927839784868e-04 5.0561812094785730e-04 0.0000000000000000e+00  -1.5306525352924098e-04 5.1226572565218952e-04 0.0000000000000000e+00  -1.5151762435834369e-04 5.1899219490060197e-04 0.0000000000000000e+00  -1.4998755261836567e-04 5.2580098701295692e-04 0.0000000000000000e+00  -1.4848232045549818e-04 5.3269407834674804e-04 0.0000000000000000e+00  -1.4699759566281137e-04 5.3966932265491808e-04 0.0000000000000000e+00  -1.4556293432818206e-04 5.4671092258063282e-04 0.0000000000000000e+00  -1.4415258808286649e-04 5.5383642230207985e-04 0.0000000000000000e+00  -1.4279768395822722e-04 5.6102312935276159e-04 0.0000000000000000e+00  -1.4148126246987610e-04 5.6829021688773688e-04 0.0000000000000000e+00  -1.4021803363858552e-04 5.7562622169839714e-04 0.0000000000000000e+00  -1.3901314666869759e-04 5.8301537545940086e-04 0.0000000000000000e+00  -1.3786909776989232e-04 5.9046775719379932e-04 0.0000000000000000e+00  -1.3677948306768515e-04 5.9799473077008672e-04 0.0000000000000000e+00  -1.3576905262834119e-04 6.0555864383165538e-04 0.0000000000000000e+00  -1.3481306348670831e-04 6.1319289880370587e-04 0.0000000000000000e+00  -1.3393612116318891e-04 6.2087599292475295e-04 0.0000000000000000e+00  -1.3313063681315900e-04 6.2862625795003131e-04 0.0000000000000000e+00  -1.3240322044107800e-04 6.3640270031222498e-04 0.0000000000000000e+00  -1.3175293258197419e-04 6.4422344833036695e-04 0.0000000000000000e+00  -1.3118791560371107e-04 6.5209671764647188e-04 0.0000000000000000e+00  -1.3070635971560815e-04 6.5999847382311883e-04 0.0000000000000000e+00  -1.3031033378426454e-04 6.6794068834086858e-04 0.0000000000000000e+00  -1.2999098571341933e-04 6.7591758892035514e-04 0.0000000000000000e+00  -1.2978844141517870e-04 6.8392353099557240e-04 0.0000000000000000e+00  -1.2963989033584454e-04 6.9194966335330954e-04 0.0000000000000000e+00  -1.2609111453151144e-04 7.0000000000000541e-04 0.0000000000000000e+00  -1.2261499405776129e-04 7.0000000000000541e-04 0.0000000000000000e+00  -1.1917350684521915e-04 7.0000000000000541e-04 0.0000000000000000e+00  -1.1575303079700792e-04 7.0000000000000541e-04 0.0000000000000000e+00  -1.1234299125758485e-04 7.0000000000000541e-04 0.0000000000000000e+00  -1.0896482962502334e-04 7.0000000000000541e-04 0.0000000000000000e+00  -1.0558574831411338e-04 7.0000000000000541e-04 0.0000000000000000e+00  -1.0221005592314445e-04 7.0000000000000541e-04 0.0000000000000000e+00  -9.8830916291823518e-05 7.0000000000000541e-04 0.0000000000000000e+00  -9.5468124957547051e-05 7.0000000000000541e-04 0.0000000000000000e+00  -9.2092410116811197e-05 7.0000000000000541e-04 0.0000000000000000e+00  -8.8711329210872726e-05 7.0000000000000541e-04 0.0000000000000000e+00  -8.5323394848080050e-05 7.0000000000000541e-04 0.0000000000000000e+00  -8.1928467819654684e-05 7.0000000000000541e-04 0.0000000000000000e+00  -7.8525592007783031e-05 7.0000000000000541e-04 0.0000000000000000e+00  -7.5107718236568796e-05 7.0000000000000541e-04 0.0000000000000000e+00  -7.1679646795287606e-05 7.0000000000000541e-04 0.0000000000000000e+00  -6.8240784579292861e-05 7.0000000000000541e-04 0.0000000000000000e+00  -6.4791879633562804e-05 7.0000000000000541e-04 0.0000000000000000e+00  -6.1333824438163494e-05 7.0000000000000541e-04 0.0000000000000000e+00  -5.7865786853922631e-05 7.0000000000000541e-04 0.0000000000000000e+00  -5.4389371930706100e-05 7.0000000000000541e-04 0.0000000000000000e+00  -5.0905720370618037e-05 7.0000000000000541e-04 0.0000000000000000e+00  -4.7419709062055796e-05 7.0000000000000541e-04 0.0000000000000000e+00  -4.3926534421273381e-05 7.0000000000000541e-04 0.0000000000000000e+00  -4.0433612856512769e-05 7.0000000000000541e-04 0.0000000000000000e+00  -3.6945397215572330e-05 7.0000000000000541e-04 0.0000000000000000e+00  -3.3458389021959547e-05 7.0000000000000541e-04 0.0000000000000000e+00  -2.9986899428050509e-05 7.0000000000000541e-04 0.0000000000000000e+00  -2.6525693773604505e-05 7.0000000000000541e-04 0.0000000000000000e+00  -2.3077925825006255e-05 7.0000000000000541e-04 0.0000000000000000e+00  -1.9653861958759200e-05 7.0000000000000541e-04 0.0000000000000000e+00  -1.6251337418081693e-05 7.0000000000000541e-04 0.0000000000000000e+00  -1.2866762517615262e-05 7.0000000000000541e-04 0.0000000000000000e+00  -9.5331869247796558e-06 7.0000000000000541e-04 0.0000000000000000e+00  -6.2277424319057865e-06 7.0000000000000541e-04 0.0000000000000000e+00  -2.9638289378859407e-06 7.0000000000000541e-04 0.0000000000000000e+00  2.5327698925332578e-07 7.0000000000000541e-04 0.0000000000000000e+00  3.4322986762584446e-06 7.0000000000000541e-04 0.0000000000000000e+00  6.5446078540663234e-06 7.0000000000000541e-04 0.0000000000000000e+00  9.5936711645783898e-06 7.0000000000000541e-04 0.0000000000000000e+00  1.2573088992815949e-05 7.0000000000000541e-04 0.0000000000000000e+00  1.5493195298997401e-05 7.0000000000000541e-04 0.0000000000000000e+00  1.8352336143664095e-05 7.0000000000000541e-04 0.0000000000000000e+00  2.1114355773905394e-05 7.0000000000000541e-04 0.0000000000000000e+00  2.3815209021591673e-05 7.0000000000000541e-04 0.0000000000000000e+00  2.6435619495244626e-05 7.0000000000000541e-04 0.0000000000000000e+00  2.8940113019408344e-05 7.0000000000000541e-04 0.0000000000000000e+00  3.1371473835645066e-05 7.0000000000000541e-04 0.0000000000000000e+00  3.3727934366182676e-05 7.0000000000000541e-04 0.0000000000000000e+00  3.5986288932492709e-05 7.0000000000000541e-04 0.0000000000000000e+00  3.8135726620605827e-05 7.0000000000000541e-04 0.0000000000000000e+00  4.0191171416897646e-05 7.0000000000000541e-04 0.0000000000000000e+00  4.2163934691115430e-05 7.0000000000000541e-04 0.0000000000000000e+00  4.4028655606774408e-05 7.0000000000000541e-04 0.0000000000000000e+00  4.5793834132815947e-05 7.0000000000000541e-04 0.0000000000000000e+00  4.7470602830560377e-05 7.0000000000000541e-04 0.0000000000000000e+00  4.9061357765479111e-05 7.0000000000000541e-04 0.0000000000000000e+00  5.0529369254062131e-05 7.0000000000000541e-04 0.0000000000000000e+00  5.1924184096234025e-05 7.0000000000000541e-04 0.0000000000000000e+00  5.3220639458335359e-05 7.0000000000000541e-04 0.0000000000000000e+00  5.4427698981969255e-05 7.0000000000000541e-04 0.0000000000000000e+00  5.5536785937102757e-05 7.0000000000000541e-04 0.0000000000000000e+00  5.6578315764363400e-05 7.0000000000000541e-04 0.0000000000000000e+00  5.7542199777527338e-05 7.0000000000000541e-04 0.0000000000000000e+00  