<?xml version="1.0"?>
<VTKFile type="UnstructuredGrid"  version="0.1"  >
<UnstructuredGrid>
<Piece  NumberOfPoints="15540" NumberOfCells="30546">
<Points>
<DataArray  type="Float64"  NumberOfComponents="3"  format="ascii">0 0 0  -0.5 -0.5 0  0.5 -0.5 0  0.5 0 0  0.5 0.5 0  -0.5 0.5 0  -0.5 0.0001 0  -0.5 -0.0001 0  0.5 0.1 0  0.5 -0.1 0  -0.5 -0.1 0  -0.5 0.1 0  -0.4900000000000277 -0.5 0  -0.4800000000000555 -0.5 0  -0.4700000000000832 -0.5 0  -0.4600000000001109 -0.5 0  -0.4500000000001387 -0.5 0  -0.4400000000001664 -0.5 0  -0.4300000000001942 -0.5 0  -0.4200000000002219 -0.5 0  -0.4100000000002497 -0.5 0  -0.4000000000002774 -0.5 0  -0.3900000000003052 -0.5 0  -0.3800000000003328 -0.5 0  -0.3700000000003606 -0.5 0  -0.3600000000003883 -0.5 0  -0.3500000000004161 -0.5 0  -0.3400000000004438 -0.5 0  -0.3300000000004716 -0.5 0  -0.3200000000004993 -0.5 0  -0.3100000000005271 -0.5 0  -0.3000000000005548 -0.5 0  -0.2900000000005825 -0.5 0  -0.2800000000006103 -0.5 0  -0.2700000000006381 -0.5 0  -0.2600000000006658 -0.5 0  -0.2500000000006935 -0.5 0  -0.2400000000007212 -0.5 0  -0.230000000000749 -0.5 0  -0.2200000000007767 -0.5 0  -0.2100000000008044 -0.5 0  -0.2000000000008322 -0.5 0  -0.19000000000086 -0.5 0  -0.1800000000008877 -0.5 0  -0.1700000000009154 -0.5 0  -0.1600000000009431 -0.5 0  -0.1500000000009709 -0.5 0  -0.1400000000009986 -0.5 0  -0.1300000000010264 -0.5 0  -0.1200000000010541 -0.5 0  -0.1100000000010818 -0.5 0  -0.1000000000011096 -0.5 0  -0.09000000000113734 -0.5 0  -0.08000000000116503 -0.5 0  -0.07000000000119283 -0.5 0  -0.06000000000122058 -0.5 0  -0.05000000000124827 -0.5 0  -0.04000000000127607 -0.5 0  -0.03000000000130376 -0.5 0  -0.02000000000133151 -0.5 0  -0.01000000000135925 -0.5 0  -1.376121439022882e-12 -0.5 0  0.009999999998640763 -0.5 0  0.01999999999866864 -0.5 0  0.02999999999869629 -0.5 0  0.03999999999872406 -0.5 0  0.04999999999875182 -0.5 0  0.05999999999877947 -0.5 0  0.06999999999880724 -0.5 0  0.079999999998835 -0.5 0  0.08999999999886266 -0.5 0  0.09999999999889042 -0.5 0  0.1099999999989182 -0.5 0  0.1199999999989459 -0.5 0  0.1299999999989737 -0.5 0  0.1399999999990014 -0.5 0  0.1499999999990291 -0.5 0  0.1599999999990568 -0.5 0  0.1699999999990847 -0.5 0  0.1799999999991124 -0.5 0  0.1899999999991401 -0.5 0  0.1999999999991678 -0.5 0  0.2099999999991955 -0.5 0  0.2199999999992234 -0.5 0  0.2299999999992511 -0.5 0  0.2399999999992788 -0.5 0  0.2499999999993066 -0.5 0  0.2599999999993342 -0.5 0  0.269999999999362 -0.5 0  0.2799999999993897 -0.5 0  0.2899999999994175 -0.5 0  0.2999999999994452 -0.5 0  0.3099999999994729 -0.5 0  0.3199999999995007 -0.5 0  0.3299999999995284 -0.5 0  0.3399999999995562 -0.5 0  0.3499999999995839 -0.5 0  0.3599999999996116 -0.5 0  0.3699999999996393 -0.5 0  0.379999999999667 -0.5 0  0.3899999999996949 -0.5 0  0.3999999999997226 -0.5 0  0.4099999999997503 -0.5 0  0.419999999999778 -0.5 0  0.4299999999998058 -0.5 0  0.4399999999998336 -0.5 0  0.4499999999998613 -0.5 0  0.4599999999998891 -0.5 0  0.4699999999999167 -0.5 0  0.4799999999999445 -0.5 0  0.4899999999999722 -0.5 0  0.5 -0.4902110204681464 0  0.5 -0.4804459958734807 0  0.5 -0.4707048677450883 0  0.5 -0.4609875815766065 0  0.5 -0.4512940759251849 0  0.5 -0.4416242912883993 0  0.5 -0.4319781678689807 0  0.5 -0.4223556545383647 0  0.5 -0.4127566896324213 0  0.5 -0.4031812128200121 0  0.5 -0.3936291733057916 0  0.5 -0.3841005081172659 0  0.5 -0.3745951585781932 0  0.5 -0.3651130778999337 0  0.5 -0.3556541993788045 0  0.5 -0.3462184677228392 0  0.5 -0.3368058273705318 0  0.5 -0.3274162224888609 0  0.5 -0.3180495969712945 0  0.5 -0.3087058944357755 0  0.5 -0.299385058222682 0  0.5 -0.2900870313927414 0  0.5 -0.2808117567250807 0  0.5 -0.2715591844628491 0  0.5 -0.2623292564012653 0  0.5 -0.253121909553727 0  0.5 -0.2439371050851549 0  0.5 -0.2347747685524501 0  0.5 -0.2256348634421331 0  0.5 -0.2165173209784076 0  0.5 -0.207422087829958 0  0.5 -0.1983491207029381 0  0.5 -0.1892983550950482 0  0.5 -0.1802697378305253 0  0.5 -0.1712632154965152 0  0.5 -0.1622787344187354 0  0.5 -0.1533162406595534 0  0.5 -0.1443756800160514 0  0.5 -0.1354569980180493 0  0.5 -0.1265601399261414 0  0.5 -0.1176850622761093 0  0.5 -0.1088317009011999 0  0.5 -0.09166666666668973 0  0.5 -0.08333333333337943 0  0.5 -0.07500000000006915 0  0.5 -0.06666666666675886 0  0.5 -0.05833333333344858 0  0.5 -0.05000000000013693 0  0.5 -0.04166666666678191 0  0.5 -0.03333333333342643 0  0.5 -0.02500000000006916 0  0.5 -0.01666666666671188 0  0.5 -0.00833333333335548 0  0.5 0.008333333333318314 0  0.5 0.01666666666663358 0  0.5 0.02499999999994162 0  0.5 0.03333333333325101 0  0.5 0.04166666666655769 0  0.5 0.04999999999986843 0  0.5 0.05833333333322258 0  0.5 0.06666666666657715 0  0.5 0.07499999999993352 0  0.5 0.08333333333328992 0  0.5 0.09166666666664541 0  0.5 0.1088317009011616 0  0.5 0.1176850622760307 0  0.5 0.1265601399260203 0  0.5 0.1354569980178909 0  0.5 0.1443756800158549 0  0.5 0.153316240659315 0  0.5 0.1622787344184454 0  0.5 0.1712632154961752 0  0.5 0.1802697378301332 0  0.5 0.1892983550946039 0  0.5 0.1983491207024433 0  0.5 0.2074220878294123 0  0.5 0.216517320977811 0  0.5 0.2256348634414833 0  0.5 0.2347747685517479 0  0.5 0.2439371050844009 0  0.5 0.2531219095529224 0  0.5 0.2623292564004089 0  0.5 0.2715591844619371 0  0.5 0.2808117567241139 0  0.5 0.290087031391723 0  0.5 0.2993850582216101 0  0.5 0.3087058944347426 0  0.5 0.3180495969703129 0  0.5 0.3274162224879299 0  0.5 0.3368058273696494 0  0.5 0.3462184677220051 0  0.5 0.3556541993780186 0  0.5 0.3651130778991989 0  0.5 0.3745951585775107 0  0.5 0.3841005081166359 0  0.5 0.3936291733052134 0  0.5 0.4031812128194852 0  0.5 0.412756689631945 0  0.5 0.4223556545379392 0  0.5 0.431978167868607 0  0.5 0.4416242912880781 0  0.5 0.4512940759249164 0  0.5 0.4609875815763912 0  0.5 0.4707048677449264 0  0.5 0.4804459958733726 0  0.5 0.4902110204680924 0  0.4900000000000277 0.5 0  0.4800000000000555 0.5 0  0.4700000000000832 0.5 0  0.4600000000001109 0.5 0  0.4500000000001387 0.5 0  0.4400000000001664 0.5 0  0.4300000000001942 0.5 0  0.4200000000002219 0.5 0  0.4100000000002497 0.5 0  0.4000000000002774 0.5 0  0.3900000000003052 0.5 0  0.3800000000003328 0.5 0  0.3700000000003606 0.5 0  0.3600000000003883 0.5 0  0.3500000000004161 0.5 0  0.3400000000004438 0.5 0  0.3300000000004716 0.5 0  0.3200000000004993 0.5 0  0.3100000000005271 0.5 0  0.3000000000005548 0.5 0  0.2900000000005825 0.5 0  0.2800000000006103 0.5 0  0.2700000000006381 0.5 0  0.2600000000006658 0.5 0  0.2500000000006935 0.5 0  0.2400000000007212 0.5 0  0.230000000000749 0.5 0  0.2200000000007767 0.5 0  0.2100000000008044 0.5 0  0.2000000000008322 0.5 0  0.19000000000086 0.5 0  0.1800000000008877 0.5 0  0.1700000000009154 0.5 0  0.1600000000009431 0.5 0  0.1500000000009709 0.5 0  0.1400000000009986 0.5 0  0.1300000000010264 0.5 0  0.1200000000010541 0.5 0  0.1100000000010818 0.5 0  0.1000000000011096 0.5 0  0.09000000000113734 0.5 0  0.08000000000116503 0.5 0  0.07000000000119283 0.5 0  0.06000000000122058 0.5 0  0.05000000000124827 0.5 0  0.04000000000127607 0.5 0  0.03000000000130376 0.5 0  0.02000000000133151 0.5 0  0.01000000000135925 0.5 0  1.376121439022882e-12 0.5 0  -0.009999999998640763 0.5 0  -0.01999999999866864 0.5 0  -0.02999999999869629 0.5 0  -0.03999999999872406 0.5 0  -0.04999999999875182 0.5 0  -0.05999999999877947 0.5 0  -0.06999999999880724 0.5 0  -0.079999999998835 0.5 0  -0.08999999999886266 0.5 0  -0.09999999999889042 0.5 0  -0.1099999999989182 0.5 0  -0.1199999999989459 0.5 0  -0.1299999999989737 0.5 0  -0.1399999999990014 0.5 0  -0.1499999999990291 0.5 0  -0.1599999999990568 0.5 0  -0.1699999999990847 0.5 0  -0.1799999999991124 0.5 0  -0.1899999999991401 0.5 0  -0.1999999999991678 0.5 0  -0.2099999999991955 0.5 0  -0.2199999999992234 0.5 0  -0.2299999999992511 0.5 0  -0.2399999999992788 0.5 0  -0.2499999999993066 0.5 0  -0.2599999999993342 0.5 0  -0.269999999999362 0.5 0  -0.2799999999993897 0.5 0  -0.2899999999994175 0.5 0  -0.2999999999994452 0.5 0  -0.3099999999994729 0.5 0  -0.3199999999995007 0.5 0  -0.3299999999995284 0.5 0  -0.3399999999995562 0.5 0  -0.3499999999995839 0.5 0  -0.3599999999996116 0.5 0  -0.3699999999996393 0.5 0  -0.379999999999667 0.5 0  -0.3899999999996949 0.5 0  -0.3999999999997226 0.5 0  -0.4099999999997503 0.5 0  -0.419999999999778 0.5 0  -0.4299999999998058 0.5 0  -0.4399999999998336 0.5 0  -0.4499999999998613 0.5 0  -0.4599999999998891 0.5 0  -0.4699999999999167 0.5 0  -0.4799999999999445 0.5 0  -0.4899999999999722 0.5 0  -0.5 0.4902110204681464 0  -0.5 0.4804459958734807 0  -0.5 0.4707048677450883 0  -0.5 0.4609875815766065 0  -0.5 0.4512940759251849 0  -0.5 0.4416242912883993 0  -0.5 0.4319781678689807 0  -0.5 0.4223556545383647 0  -0.5 0.4127566896324213 0  -0.5 0.4031812128200121 0  -0.5 0.3936291733057916 0  -0.5 0.3841005081172659 0  -0.5 0.3745951585781932 0  -0.5 0.3651130778999337 0  -0.5 0.3556541993788045 0  -0.5 0.3462184677228392 0  -0.5 0.3368058273705318 0  -0.5 0.3274162224888609 0  -0.5 0.3180495969712945 0  -0.5 0.3087058944357755 0  -0.5 0.299385058222682 0  -0.5 0.2900870313927414 0  -0.5 0.2808117567250807 0  -0.5 0.2715591844628491 0  -0.5 0.2623292564012653 0  -0.5 0.253121909553727 0  -0.5 0.2439371050851549 0  -0.5 0.2347747685524501 0  -0.5 0.2256348634421331 0  -0.5 0.2165173209784076 0  -0.5 0.207422087829958 0  -0.5 0.1983491207029381 0  -0.5 0.1892983550950482 0  -0.5 0.1802697378305253 0  -0.5 0.1712632154965152 0  -0.5 0.1622787344187354 0  -0.5 0.1533162406595534 0  -0.5 0.1443756800160514 0  -0.5 0.1354569980180493 0  -0.5 0.1265601399261414 0  -0.5 0.1176850622761093 0  -0.5 0.1088317009011999 0  -0.5 0.09167500000001694 0  -0.5 0.08335000000003931 0  -0.5 0.07502500000006167 0  -0.5 0.06670000000008947 0  -0.5 0.05837500000011001 0  -0.5 0.0500500000001328 0  -0.5 0.0417250000001127 0  -0.5 0.03340000000008944 0  -0.5 0.02507500000006573 0  -0.5 0.01675000000004653 0  -0.5 0.008425000000027341 
[...]
<PointData  Vectors="f_7"> 
<DataArray  type="Float64"  Name="f_7"  NumberOfComponents="3" format="ascii">-1.8675804673976243e-04 6.7644462060637077e-04 0.0000000000000000e+00  0.0000000000000000e+00 0.0000000000000000e+00 0.0000000000000000e+00  0.0000000000000000e+00 0.0000000000000000e+00 0.0000000000000000e+00  -3.6728491174312008e-04 6.9702044115784909e-04 0.0000000000000000e+00  -2.5871608814617491e-04 1.3999999999839872e-03 0.0000000000000000e+00  1.1780706739089674e-04 1.3999999999839872e-03 0.0000000000000000e+00  -7.4704069348930863e-05 1.4699085750923759e-03 0.0000000000000000e+00  -6.6277650456461834e-05 -3.7902211905540807e-05 0.0000000000000000e+00  -3.5727445457149973e-04 8.1008664071367733e-04 0.0000000000000000e+00  -3.4978957971639813e-04 5.8701468064976850e-04 0.0000000000000000e+00  -3.6496043938730900e-05 -3.7540704090676885e-05 0.0000000000000000e+00  -2.4451422634518355e-05 1.4696690580969251e-03 0.0000000000000000e+00  0.0000000000000000e+00 0.0000000000000000e+00 0.0000000000000000e+00  0.0000000000000000e+00 0.0000000000000000e+00 0.0000000000000000e+00  0.0000000000000000e+00 0.0000000000000000e+00 0.0000000000000000e+00  0.0000000000000000e+00 0.0000000000000000e+00 0.0000000000000000e+00  0.0000000000000000e+00 0.0000000000000000e+00 0.0000000000000000e+00  0.0000000000000000e+00 0.0000000000000000e+00 0.0000000000000000e+00  0.0000000000000000e+00 0.0000000000000000e+00 0.0000000000000000e+00  0.0000000000000000e+00 0.0000000000000000e+00 0.0000000000000000e+00  0.0000000000000000e+00 0.0000000000000000e+00 0.0000000000000000e+00  0.0000000000000000e+00 0.0000000000000000e+00 0.0000000000000000e+00  0.0000000000000000e+00 0.0000000000000000e+00 0.0000000000000000e+00  0.0000000000000000e+00 0.0000000000000000e+00 0.0000000000000000e+00  0.0000000000000000e+00 0.0000000000000000e+00 0.0000000000000000e+00  0.0000000000000000e+00 0.0000000000000000e+00 0.0000000000000000e+00  0.0000000000000000e+00 0.0000000000000000e+00 0.0000000000000000e+00  0.0000000000000000e+00 0.0000000000000000e+00 0.0000000000000000e+00  0.0000000000000000e+00 0.0000000000000000e+00 0.0000000000000000e+00  0.0000000000000000e+00 0.0000000000000000e+00 0.0000000000000000e+00  0.0000000000000000e+00 0.0000000000000000e+00 0.0000000000000000e+00  0.0000000000000000e+00 0.0000000000000000e+00 0.0000000000000000e+00  0.0000000000000000e+00 0.0000000000000000e+00 0.0000000000000000e+00  0.0000000000000000e+00 0.0000000000000000e+00 0.0000000000000000e+00  0.0000000000000000e+00 0.0000000000000000e+00 0.0000000000000000e+00  0.0000000000000000e+00 0.0000000000000000e+00 0.0000000000000000e+00  0.0000000000000000e+00 0.0000000000000000e+00 0.0000000000000000e+00  0.0000000000000000e+00 0.0000000000000000e+00 0.0000000000000000e+00  0.0000000000000000e+00 0.0000000000000000e+00 0.0000000000000000e+00  0.0000000000000000e+00 0.0000000000000000e+00 0.0000000000000000e+00  0.0000000000000000e+00 0.0000000000000000e+00 0.0000000000000000e+00  0.0000000000000000e+00 0.0000000000000000e+00 0.0000000000000000e+00  0.0000000000000000e+00 0.0000000000000000e+00 0.0000000000000000e+00  0.0000000000000000e+00 0.0000000000000000e+00 0.0000000000000000e+00  0.0000000000000000e+00 0.0000000000000000e+00 0.0000000000000000e+00  0.0000000000000000e+00 0.0000000000000000e+00 0.0000000000000000e+00  0.0000000000000000e+00 0.0000000000000000e+00 0.0000000000000000e+00  0.0000000000000000e+00 0.0000000000000000e+00 0.0000000000000000e+00  0.0000000000000000e+00 0.0000000000000000e+00 0.0000000000000000e+00  0.0000000000000000e+00 0.0000000000000000e+00 0.0000000000000000e+00  0.0000000000000000e+00 0.0000000000000000e+00 0.0000000000000000e+00  0.0000000000000000e+00 0.0000000000000000e+00 0.0000000000000000e+00  0.0000000000000000e+00 0.0000000000000000e+00 0.0000000000000000e+00  0.0000000000000000e+00 0.0000000000000000e+00 0.0000000000000000e+00  0.0000000000000000e+00 0.0000000000000000e+00 0.0000000000000000e+00  0.0000000000000000e+00 0.0000000000000000e+00 0.0000000000000000e+00  0.0000000000000000e+00 0.0000000000000000e+00 0.0000000000000000e+00  0.0000000000000000e+00 0.0000000000000000e+00 0.0000000000000000e+00  0.0000000000000000e+00 0.0000000000000000e+00 0.0000000000000000e+00  0.0000000000000000e+00 0.0000000000000000e+00 0.0000000000000000e+00  0.0000000000000000e+00 0.0000000000000000e+00 0.0000000000000000e+00  0.0000000000000000e+00 0.0000000000000000e+00 0.0000000000000000e+00  0.0000000000000000e+00 0.0000000000000000e+00 0.0000000000000000e+00  0.0000000000000000e+00 0.0000000000000000e+00 0.0000000000000000e+00  0.0000000000000000e+00 0.0000000000000000e+00 0.0000000000000000e+00  0.0000000000000000e+00 0.0000000000000000e+00 0.0000000000000000e+00  0.0000000000000000e+00 0.0000000000000000e+00 0.0000000000000000e+00  0.0000000000000000e+00 0.0000000000000000e+00 0.0000000000000000e+00  0.0000000000000000e+00 0.0000000000000000e+00 0.0000000000000000e+00  0.0000000000000000e+00 0.0000000000000000e+00 0.0000000000000000e+00  0.0000000000000000e+00 0.0000000000000000e+00 0.0000000000000000e+00  0.0000000000000000e+00 0.0000000000000000e+00 0.0000000000000000e+00  0.0000000000000000e+00 0.0000000000000000e+00 0.0000000000000000e+00  0.0000000000000000e+00 0.0000000000000000e+00 0.0000000000000000e+00  0.0000000000000000e+00 0.0000000000000000e+00 0.0000000000000000e+00  0.0000000000000000e+00 0.0000000000000000e+00 0.0000000000000000e+00  0.0000000000000000e+00 0.0000000000000000e+00 0.0000000000000000e+00  0.0000000000000000e+00 0.0000000000000000e+00 0.0000000000000000e+00  0.0000000000000000e+00 0.0000000000000000e+00 0.0000000000000000e+00  0.0000000000000000e+00 0.0000000000000000e+00 0.0000000000000000e+00  0.0000000000000000e+00 0.0000000000000000e+00 0.0000000000000000e+00  0.0000000000000000e+00 0.0000000000000000e+00 0.0000000000000000e+00  0.0000000000000000e+00 0.0000000000000000e+00 0.0000000000000000e+00  0.0000000000000000e+00 0.0000000000000000e+00 0.0000000000000000e+00  0.0000000000000000e+00 0.0000000000000000e+00 0.0000000000000000e+00  0.0000000000000000e+00 0.0000000000000000e+00 0.0000000000000000e+00  0.0000000000000000e+00 0.0000000000000000e+00 0.0000000000000000e+00  0.0000000000000000e+00 0.0000000000000000e+00 0.0000000000000000e+00  0.0000000000000000e+00 0.0000000000000000e+00 0.0000000000000000e+00  0.0000000000000000e+00 0.0000000000000000e+00 0.0000000000000000e+00  0.0000000000000000e+00 0.0000000000000000e+00 0.0000000000000000e+00  0.0000000000000000e+00 0.0000000000000000e+00 0.0000000000000000e+00  0.0000000000000000e+00 0.0000000000000000e+00 0.0000000000000000e+00  0.0000000000000000e+00 0.0000000000000000e+00 0.0000000000000000e+00  0.0000000000000000e+00 0.0000000000000000e+00 0.0000000000000000e+00  0.0000000000000000e+00 0.0000000000000000e+00 0.0000000000000000e+00  0.0000000000000000e+00 0.0000000000000000e+00 0.0000000000000000e+00  0.0000000000000000e+00 0.0000000000000000e+00 0.0000000000000000e+00  0.0000000000000000e+00 0.0000000000000000e+00 0.0000000000000000e+00  0.0000000000000000e+00 0.0000000000000000e+00 0.0000000000000000e+00  0.0000000000000000e+00 0.0000000000000000e+00 0.0000000000000000e+00  0.0000000000000000e+00 0.0000000000000000e+00 0.0000000000000000e+00  0.0000000000000000e+00 0.0000000000000000e+00 0.0000000000000000e+00  0.0000000000000000e+00 0.0000000000000000e+00 0.0000000000000000e+00  0.0000000000000000e+00 0.0000000000000000e+00 0.0000000000000000e+00  0.0000000000000000e+00 0.0000000000000000e+00 0.0000000000000000e+00  0.0000000000000000e+00 0.0000000000000000e+00 0.0000000000000000e+00  0.0000000000000000e+00 0.0000000000000000e+00 0.0000000000000000e+00  0.0000000000000000e+00 0.0000000000000000e+00 0.0000000000000000e+00  0.0000000000000000e+00 0.0000000000000000e+00 0.0000000000000000e+00  0.0000000000000000e+00 0.0000000000000000e+00 0.0000000000000000e+00  -3.3144028031108467e-05 3.4407046869048991e-05 0.0000000000000000e+00  -5.4852370312350224e-05 5.9310691282202128e-05 0.0000000000000000e+00  -7.2723428038274165e-05 8.0444334352480589e-05 0.0000000000000000e+00  -8.8522895013037753e-05 9.9511609473332672e-05 0.0000000000000000e+00  -1.0272104261538061e-04 1.1712725255818246e-04 0.0000000000000000e+00  -1.1574827706359599e-04 1.3378421361778296e-04 0.0000000000000000e+00  -1.2795946093830245e-04 1.4971538372710459e-04 0.0000000000000000e+00  -1.3917921610993885e-04 1.6515341805306194e-04 0.0000000000000000e+00  -1.4970575702142268e-04 1.8018377224363608e-04 0.0000000000000000e+00  -1.5976534035057045e-04 1.9480594918279206e-04 0.0000000000000000e+00  -1.6925167984761813e-04 2.0919492604745061e-04 0.0000000000000000e+00  -1.7832999708178443e-04 2.2325565430243952e-04 0.0000000000000000e+00  -1.8694201050867924e-04 2.3718614448470877e-04 0.0000000000000000e+00  -1.9527118442077407e-04 2.5081938345791375e-04 0.0000000000000000e+00  -2.0325729072096432e-04 2.6434683632046182e-04 0.0000000000000000e+00  -2.1102884963815282e-04 2.7766433245098791e-04 0.0000000000000000e+00  -2.1846515230605285e-04 2.9082861567803256e-04 0.0000000000000000e+00  -2.2568176976325881e-04 3.0380752176229251e-04 0.0000000000000000e+00  -2.3272183036733327e-04 3.1670159069901332e-04 0.0000000000000000e+00  -2.3951531476725023e-04 3.2940739379162619e-04 0.0000000000000000e+00  -2.4612166225063689e-04 3.4199150426453387e-04 0.0000000000000000e+00  -2.5254483301713802e-04 3.5445563897481581e-04 0.0000000000000000e+00  -2.5880320150761701e-04 3.6677950021335356e-04 0.0000000000000000e+00  -2.6489199061496279e-04 3.7898119645886770e-04 0.0000000000000000e+00  -2.7082056377356826e-04 3.9103777919959168e-04 0.0000000000000000e+00  -2.7658887632116876e-04 4.0296088083759796e-04 0.0000000000000000e+00  -2.8220626483175013e-04 4.1472923773547266e-04 0.0000000000000000e+00  -2.8770733690251381e-04 4.2642593052462315e-04 0.0000000000000000e+00  -2.9300572294969186e-04 4.3797318235967627e-04 0.0000000000000000e+00  -2.9814849622740664e-04 4.4938966589392004e-04 0.0000000000000000e+00  -3.0314161305969176e-04 4.6069770752143460e-04 0.0000000000000000e+00  -3.0799417013413326e-04 4.7185931047006159e-04 0.0000000000000000e+00  -3.1266470882107951e-04 4.8290042154292955e-04 0.0000000000000000e+00  -3.1718981238424457e-04 4.9379743550470687e-04 0.0000000000000000e+00  -3.2154974465492005e-04 5.0460988504297656e-04 0.0000000000000000e+00  -3.2570993155282119e-04 5.1529653059977413e-04 0.0000000000000000e+00  -3.2970575074272484e-04 5.2587028807625697e-04 0.0000000000000000e+00  -3.3353845878611075e-04 5.3629334632540593e-04 0.0000000000000000e+00  -3.3715858349368230e-04 5.4664460097635374e-04 0.0000000000000000e+00  -3.4061684435030784e-04 5.5687765218293580e-04 0.0000000000000000e+00  -3.4386248009910436e-04 5.6703200057418184e-04 0.0000000000000000e+00  -3.4692388333123684e-04 5.7705127436169599e-04 0.0000000000000000e+00  -3.5228228557417568e-04 5.9634525751126868e-04 0.0000000000000000e+00  -3.5461158055717640e-04 6.0560376249132835e-04 0.0000000000000000e+00  -3.5674721700583456e-04 6.1485828687418091e-04 0.0000000000000000e+00  -3.5870266292870799e-04 6.2403206661940016e-04 0.0000000000000000e+00  -3.6047729074633429e-04 6.3321948398172684e-04 0.0000000000000000e+00  -3.6203215176435155e-04 6.4238897528218588e-04 0.0000000000000000e+00  -3.6341005864552051e-04 6.5148249029865855e-04 0.0000000000000000e+00  -3.6458559696854676e-04 6.6058735842200705e-04 0.0000000000000000e+00  -3.6556673336022943e-04 6.6969705399754745e-04 0.0000000000000000e+00  -3.6631310738804263e-04 6.7881808326043856e-04 0.0000000000000000e+00  -3.6689944221953834e-04 6.8790084458907779e-04 0.0000000000000000e+00  -3.6744518523927985e-04 7.0616010726402563e-04 0.0000000000000000e+00  -3.6742076876583016e-04 7.1531623702138203e-04 0.0000000000000000e+00  -3.6721076170700994e-04 7.2453994986216869e-04 0.0000000000000000e+00  -3.6680530050387850e-04 7.3376317531617197e-04 0.0000000000000000e+00  -3.6621915789752853e-04 7.4307587856545655e-04 0.0000000000000000e+00  -3.6544557538772086e-04 7.5245242784051955e-04 0.0000000000000000e+00  -3.6447743977547188e-04 7.6184654286330557e-04 0.0000000000000000e+00  -3.6336075325078132e-04 7.7134017000017195e-04 0.0000000000000000e+00  -3.6208847346953484e-04 7.8091811951747851e-04 0.0000000000000000e+00  -3.6061405790925648e-04 7.9057100966493943e-04 0.0000000000000000e+00  -3.5901666100532950e-04 8.0027013147890259e-04 0.0000000000000000e+00  -3.5525870240059722e-04 8.2060993836134059e-04 0.0000000000000000e+00  -3.5309217155502778e-04 8.3125058829092331e-04 0.0000000000000000e+00  -3.5079276233500041e-04 8.4206816896028117e-04 0.0000000000000000e+00  -3.4834523988570783e-04 8.5300648975801259e-04 0.0000000000000000e+00  -3.4581780026703856e-04 8.6411486125589692e-04 0.0000000000000000e+00  -3.4313316447320076e-04 8.7535510202445624e-04 0.0000000000000000e+00  -3.4037054499023458e-04 8.8678234996881556e-04 0.0000000000000000e+00  -3.3750469688667388e-04 8.9837947511259579e-04 0.0000000000000000e+00  -3.3456040424931016e-04 9.1014762361362465e-04 0.0000000000000000e+00  -3.3152400384314594e-04 9.2206516983399985e-04 0.0000000000000000e+00  -3.2846288951450878e-04 9.3416526633306176e-04 0.0000000000000000e+00  -3.2533316946071962e-04 9.4643644176282135e-04 0.0000000000000000e+00  -3.2218290104337952e-04 9.5888368639758872e-04 0.0000000000000000e+00  -3.1901170138537107e-04 9.7151076768904241e-04 0.0000000000000000e+00  -3.1582142302447427e-04 9.8431555228383795e-04 0.0000000000000000e+00  -3.1261326157515639e-04 9.9728259483826431e-04 0.0000000000000000e+00  -3.0941162807297833e-04 1.0104058240871822e-03 0.0000000000000000e+00  -3.0624835462858942e-04 1.0237077013941979e-03 0.0000000000000000e+00  -3.0311815209789592e-04 1.0371697931878165e-03 0.0000000000000000e+00  -3.0002316168411392e-04 1.0507986695630946e-03 0.0000000000000000e+00  -2.9697842558884188e-04 1.0645988884955032e-03 0.0000000000000000e+00  -2.9397485254424729e-04 1.0785658549088888e-03 0.0000000000000000e+00  -2.9107202932097904e-04 1.0926679263976674e-03 0.0000000000000000e+00  -2.8821844634930905e-04 1.1069401938458305e-03 0.0000000000000000e+00  -2.8547683500461027e-04 1.1213373650064650e-03 0.0000000000000000e+00  -2.8281298884802746e-04 1.1358970713915284e-03 0.0000000000000000e+00  -2.8025657762803931e-04 1.1505970358085878e-03 0.0000000000000000e+00  -2.7781842337243687e-04 1.1654052759249561e-03 0.0000000000000000e+00  -2.7550319008211668e-04 1.1803418681688874e-03 0.0000000000000000e+00  -2.7329719426417661e-04 1.1954296542986893e-03 0.0000000000000000e+00  -2.7125141865415303e-04 1.2105919266324977e-03 0.0000000000000000e+00  -2.6931655507482993e-04 1.2258980970406743e-03 0.0000000000000000e+00  -2.6754138348962655e-04 1.2413027426048673e-03 0.0000000000000000e+00  -2.6591058860059221e-04 1.2568427601982093e-03 0.0000000000000000e+00  -2.6443727815974905e-04 1.2724360412508758e-03 0.0000000000000000e+00  -2.6311919666264323e-04 1.2881200018152420e-03 0.0000000000000000e+00  -2.6197515494228097e-04 1.3039104902411742e-03 0.0000000000000000e+00  -2.6099868595803438e-04 1.3197595122924240e-03 0.0000000000000000e+00  -2.6019604341136492e-04 1.3356911614174575e-03 0.0000000000000000e+00  -2.5955061522137183e-04 1.3516942013673005e-03 0.0000000000000000e+00  -2.5913765236174947e-04 1.3677511167136222e-03 0.0000000000000000e+00  -2.5883929174009499e-04 1.3838488817514297e-03 0.0000000000000000e+00  -2.5171928953030790e-04 1.3999999999839872e-03 0.0000000000000000e+00  -2.4474811442917413e-04 1.3999999999839872e-03 0.0000000000000000e+00  -2.3784721067430351e-04 1.3999999999839872e-03 0.0000000000000000e+00  -2.3098801325522825e-04 1.3999999999839872e-03 0.0000000000000000e+00  -2.2415168287584955e-04 1.3999999999839872e-03 0.0000000000000000e+00  -2.1738108182426280e-04 1.3999999999839872e-03 0.0000000000000000e+00  -2.1060905439551934e-04 1.3999999999839872e-03 0.0000000000000000e+00  -2.0384469271124165e-04 1.3999999999839872e-03 0.0000000000000000e+00  -1.9707414649134303e-04 1.3999999999839872e-03 0.0000000000000000e+00  -1.9033877911090160e-04 1.3999999999839872e-03 0.0000000000000000e+00  -1.8357859271295643e-04 1.3999999999839872e-03 0.0000000000000000e+00  -1.7680778193174547e-04 1.3999999999839872e-03 0.0000000000000000e+00  -1.7002575929499699e-04 1.3999999999839872e-03 0.0000000000000000e+00  -1.6323090676719231e-04 1.3999999999839872e-03 0.0000000000000000e+00  -1.5642073956070570e-04 1.3999999999839872e-03 0.0000000000000000e+00  -1.4958168905137743e-04 1.3999999999839872e-03 0.0000000000000000e+00  -1.4272386040133772e-04 1.3999999999839872e-03 0.0000000000000000e+00  -1.3584636201344625e-04 1.3999999999839872e-03 0.0000000000000000e+00  -1.2894938744367599e-04 1.3999999999839872e-03 0.0000000000000000e+00  -1.2203529630712504e-04 1.3999999999839872e-03 0.0000000000000000e+00  -1.1510336443681231e-04 1.3999999999839872e-03 0.0000000000000000e+00  -1.0815541717741221e-04 1.3999999999839872e-03 0.0000000000000000e+00  -1.0119595983910388e-04 1.3999999999839872e-03 0.0000000000000000e+00  -9.4231634200028444e-05 1.3999999999839872e-03 0.0000000000000000e+00  -8.7255424910560219e-05 1.3999999999839872e-03 0.0000000000000000e+00  -8.0281445426723716e-05 1.3999999999839872e-03 0.0000000000000000e+00  -7.3318541088709284e-05 1.3999999999839872e-03 0.0000000000000000e+00  -6.6359704586440725e-05 1.3999999999839872e-03 0.0000000000000000e+00  -5.9435099759964249e-05 1.3999999999839872e-03 0.0000000000000000e+00  -5.2533438913902131e-05 1.3999999999839872e-03 0.0000000000000000e+00  -4.5659376600641945e-05 1.3999999999839872e-03 0.0000000000000000e+00  -3.8833920249844486e-05 1.3999999999839872e-03 0.0000000000000000e+00  -3.2053799351647170e-05 1.3999999999839872e-03 0.0000000000000000e+00  -2.5310689093469538e-05 1.3999999999839872e-03 0.0000000000000000e+00  -1.8672136657861747e-05 1.3999999999839872e-03 0.0000000000000000e+00  -1.2091305622648173e-05 1.3999999999839872e-03 0.0000000000000000e+00  -5.5943327685812258e-06 1.3999999999839872e-03 0.0000000000000000e+00  8.0610665829449113e-07 1.3999999999839872e-03 0.0000000000000000e+00  7.1305444390738313e-06 1.3999999999839872e-03 0.0000000000000000e+00  1.3318815248101640e-05 1.3999999999839872e-03 0.0000000000000000e+00  1.9379463506100460e-05 1.3999999999839872e-03 0.0000000000000000e+00  2.5300042070979531e-05 1.3999999999839872e-03 0.0000000000000000e+00  3.1101143864019980e-05 1.3999999999839872e-03 0.0000000000000000e+00  3.6778472857965761e-05 1.3999999999839872e-03 0.0000000000000000e+00  4.2260960770950603e-05 1.3999999999839872e-03 0.0000000000000000e+00  4.7621231988177526e-05 1.3999999999839872e-03 0.0000000000000000e+00  5.2820463919002849e-05 1.3999999999839872e-03 0.0000000000000000e+00  5.7786937504299830e-05 1.3999999999839872e-03 0.0000000000000000e+00  6.2608422168939748e-05 1.3999999999839872e-03 0.0000000000000000e+00  6.7279441423015698e-05 1.3999999999839872e-03 0.0000000000000000e+00  7.1753964136342244e-05 1.3999999999839872e-03 0.0000000000000000e+00  7.6011140349594157e-05 1.3999999999839872e-03 0.0000000000000000e+00  8.0081905958415595e-05 1.3999999999839872e-03 0.0000000000000000e+00  8.3988432962682534e-05 1.3999999999839872e-03 0.0000000000000000e+00  8.7678500155755540e-05 1.3999999999839872e-03 0.0000000000000000e+00  9.1170659666939057e-05 1.3999999999839872e-03 0.0000000000000000e+00  9.4486863341060497e-05 1.3999999999839872e-03 0.0000000000000000e+00  9.7631328183652116e-05 1.3999999999839872e-03 0.0000000000000000e+00  1.0053292177411527e-04 1.3999999999839872e-03 0.0000000000000000e+00  1.0328861921228540e-04 1.3999999999839872e-03 0.0000000000000000e+00  1.0584998202986816e-04 1.3999999999839872e-03 0.0000000000000000e+00  1.0823351668831890e-04 1.3999999999839872e-03 0.0000000000000000e+00  1.1042256984648876e-04 1.3999999999839872e-03 0.0000000000000000e+00  1.1247733231773362e-04 1.3999999999839872e-03 0.0000000000000000e+00  1.1437934232861248e-04 1.3999999999839872e-03 0.0000000000000000e+00  