<?xml version="1.0"?>
<VTKFile type="UnstructuredGrid"  version="0.1"  >
<UnstructuredGrid>
<Piece  NumberOfPoints="15540" NumberOfCells="30546">
<Points>
<DataArray  type="Float64"  NumberOfComponents="3"  format="ascii">0 0 0  -0.5 -0.5 0  0.5 -0.5 0  0.5 0 0  0.5 0.5 0  -0.5 0.5 0  -0.5 0.0001 0  -0.5 -0.0001 0  0.5 0.1 0  0.5 -0.1 0  -0.5 -0.1 0  -0.5 0.1 0  -0.4900000000000277 -0.5 0  -0.4800000000000555 -0.5 0  -0.4700000000000832 -0.5 0  -0.4600000000001109 -0.5 0  -0.4500000000001387 -0.5 0  -0.4400000000001664 -0.5 0  -0.4300000000001942 -0.5 0  -0.4200000000002219 -0.5 0  -0.4100000000002497 -0.5 0  -0.4000000000002774 -0.5 0  -0.3900000000003052 -0.5 0  -0.3800000000003328 -0.5 0  -0.3700000000003606 -0.5 0  -0.3600000000003883 -0.5 0  -0.3500000000004161 -0.5 0  -0.3400000000004438 -0.5 0  -0.3300000000004716 -0.5 0  -0.3200000000004993 -0.5 0  -0.3100000000005271 -0.5 0  -0.3000000000005548 -0.5 0  -0.2900000000005825 -0.5 0  -0.2800000000006103 -0.5 0  -0.2700000000006381 -0.5 0  -0.2600000000006658 -0.5 0  -0.2500000000006935 -0.5 0  -0.2400000000007212 -0.5 0  -0.230000000000749 -0.5 0  -0.2200000000007767 -0.5 0  -0.2100000000008044 -0.5 0  -0.2000000000008322 -0.5 0  -0.19000000000086 -0.5 0  -0.1800000000008877 -0.5 0  -0.1700000000009154 -0.5 0  -0.1600000000009431 -0.5 0  -0.1500000000009709 -0.5 0  -0.1400000000009986 -0.5 0  -0.1300000000010264 -0.5 0  -0.1200000000010541 -0.5 0  -0.1100000000010818 -0.5 0  -0.1000000000011096 -0.5 0  -0.09000000000113734 -0.5 0  -0.08000000000116503 -0.5 0  -0.07000000000119283 -0.5 0  -0.06000000000122058 -0.5 0  -0.05000000000124827 -0.5 0  -0.04000000000127607 -0.5 0  -0.03000000000130376 -0.5 0  -0.02000000000133151 -0.5 0  -0.01000000000135925 -0.5 0  -1.376121439022882e-12 -0.5 0  0.009999999998640763 -0.5 0  0.01999999999866864 -0.5 0  0.02999999999869629 -0.5 0  0.03999999999872406 -0.5 0  0.04999999999875182 -0.5 0  0.05999999999877947 -0.5 0  0.06999999999880724 -0.5 0  0.079999999998835 -0.5 0  0.08999999999886266 -0.5 0  0.09999999999889042 -0.5 0  0.1099999999989182 -0.5 0  0.1199999999989459 -0.5 0  0.1299999999989737 -0.5 0  0.1399999999990014 -0.5 0  0.1499999999990291 -0.5 0  0.1599999999990568 -0.5 0  0.1699999999990847 -0.5 0  0.1799999999991124 -0.5 0  0.1899999999991401 -0.5 0  0.1999999999991678 -0.5 0  0.2099999999991955 -0.5 0  0.2199999999992234 -0.5 0  0.2299999999992511 -0.5 0  0.2399999999992788 -0.5 0  0.2499999999993066 -0.5 0  0.2599999999993342 -0.5 0  0.269999999999362 -0.5 0  0.2799999999993897 -0.5 0  0.2899999999994175 -0.5 0  0.2999999999994452 -0.5 0  0.3099999999994729 -0.5 0  0.3199999999995007 -0.5 0  0.3299999999995284 -0.5 0  0.3399999999995562 -0.5 0  0.3499999999995839 -0.5 0  0.3599999999996116 -0.5 0  0.3699999999996393 -0.5 0  0.379999999999667 -0.5 0  0.3899999999996949 -0.5 0  0.3999999999997226 -0.5 0  0.4099999999997503 -0.5 0  0.419999999999778 -0.5 0  0.4299999999998058 -0.5 0  0.4399999999998336 -0.5 0  0.4499999999998613 -0.5 0  0.4599999999998891 -0.5 0  0.4699999999999167 -0.5 0  0.4799999999999445 -0.5 0  0.4899999999999722 -0.5 0  0.5 -0.4902110204681464 0  0.5 -0.4804459958734807 0  0.5 -0.4707048677450883 0  0.5 -0.4609875815766065 0  0.5 -0.4512940759251849 0  0.5 -0.4416242912883993 0  0.5 -0.4319781678689807 0  0.5 -0.4223556545383647 0  0.5 -0.4127566896324213 0  0.5 -0.4031812128200121 0  0.5 -0.3936291733057916 0  0.5 -0.3841005081172659 0  0.5 -0.3745951585781932 0  0.5 -0.3651130778999337 0  0.5 -0.3556541993788045 0  0.5 -0.3462184677228392 0  0.5 -0.3368058273705318 0  0.5 -0.3274162224888609 0  0.5 -0.3180495969712945 0  0.5 -0.3087058944357755 0  0.5 -0.299385058222682 0  0.5 -0.2900870313927414 0  0.5 -0.2808117567250807 0  0.5 -0.2715591844628491 0  0.5 -0.2623292564012653 0  0.5 -0.253121909553727 0  0.5 -0.2439371050851549 0  0.5 -0.2347747685524501 0  0.5 -0.2256348634421331 0  0.5 -0.2165173209784076 0  0.5 -0.207422087829958 0  0.5 -0.1983491207029381 0  0.5 -0.1892983550950482 0  0.5 -0.1802697378305253 0  0.5 -0.1712632154965152 0  0.5 -0.1622787344187354 0  0.5 -0.1533162406595534 0  0.5 -0.1443756800160514 0  0.5 -0.1354569980180493 0  0.5 -0.1265601399261414 0  0.5 -0.1176850622761093 0  0.5 -0.1088317009011999 0  0.5 -0.09166666666668973 0  0.5 -0.08333333333337943 0  0.5 -0.07500000000006915 0  0.5 -0.06666666666675886 0  0.5 -0.05833333333344858 0  0.5 -0.05000000000013693 0  0.5 -0.04166666666678191 0  0.5 -0.03333333333342643 0  0.5 -0.02500000000006916 0  0.5 -0.01666666666671188 0  0.5 -0.00833333333335548 0  0.5 0.008333333333318314 0  0.5 0.01666666666663358 0  0.5 0.02499999999994162 0  0.5 0.03333333333325101 0  0.5 0.04166666666655769 0  0.5 0.04999999999986843 0  0.5 0.05833333333322258 0  0.5 0.06666666666657715 0  0.5 0.07499999999993352 0  0.5 0.08333333333328992 0  0.5 0.09166666666664541 0  0.5 0.1088317009011616 0  0.5 0.1176850622760307 0  0.5 0.1265601399260203 0  0.5 0.1354569980178909 0  0.5 0.1443756800158549 0  0.5 0.153316240659315 0  0.5 0.1622787344184454 0  0.5 0.1712632154961752 0  0.5 0.1802697378301332 0  0.5 0.1892983550946039 0  0.5 0.1983491207024433 0  0.5 0.2074220878294123 0  0.5 0.216517320977811 0  0.5 0.2256348634414833 0  0.5 0.2347747685517479 0  0.5 0.2439371050844009 0  0.5 0.2531219095529224 0  0.5 0.2623292564004089 0  0.5 0.2715591844619371 0  0.5 0.2808117567241139 0  0.5 0.290087031391723 0  0.5 0.2993850582216101 0  0.5 0.3087058944347426 0  0.5 0.3180495969703129 0  0.5 0.3274162224879299 0  0.5 0.3368058273696494 0  0.5 0.3462184677220051 0  0.5 0.3556541993780186 0  0.5 0.3651130778991989 0  0.5 0.3745951585775107 0  0.5 0.3841005081166359 0  0.5 0.3936291733052134 0  0.5 0.4031812128194852 0  0.5 0.412756689631945 0  0.5 0.4223556545379392 0  0.5 0.431978167868607 0  0.5 0.4416242912880781 0  0.5 0.4512940759249164 0  0.5 0.4609875815763912 0  0.5 0.4707048677449264 0  0.5 0.4804459958733726 0  0.5 0.4902110204680924 0  0.4900000000000277 0.5 0  0.4800000000000555 0.5 0  0.4700000000000832 0.5 0  0.4600000000001109 0.5 0  0.4500000000001387 0.5 0  0.4400000000001664 0.5 0  0.4300000000001942 0.5 0  0.4200000000002219 0.5 0  0.4100000000002497 0.5 0  0.4000000000002774 0.5 0  0.3900000000003052 0.5 0  0.3800000000003328 0.5 0  0.3700000000003606 0.5 0  0.3600000000003883 0.5 0  0.3500000000004161 0.5 0  0.3400000000004438 0.5 0  0.3300000000004716 0.5 0  0.3200000000004993 0.5 0  0.3100000000005271 0.5 0  0.3000000000005548 0.5 0  0.2900000000005825 0.5 0  0.2800000000006103 0.5 0  0.2700000000006381 0.5 0  0.2600000000006658 0.5 0  0.2500000000006935 0.5 0  0.2400000000007212 0.5 0  0.230000000000749 0.5 0  0.2200000000007767 0.5 0  0.2100000000008044 0.5 0  0.2000000000008322 0.5 0  0.19000000000086 0.5 0  0.1800000000008877 0.5 0  0.1700000000009154 0.5 0  0.1600000000009431 0.5 0  0.1500000000009709 0.5 0  0.1400000000009986 0.5 0  0.1300000000010264 0.5 0  0.1200000000010541 0.5 0  0.1100000000010818 0.5 0  0.1000000000011096 0.5 0  0.09000000000113734 0.5 0  0.08000000000116503 0.5 0  0.07000000000119283 0.5 0  0.06000000000122058 0.5 0  0.05000000000124827 0.5 0  0.04000000000127607 0.5 0  0.03000000000130376 0.5 0  0.02000000000133151 0.5 0  0.01000000000135925 0.5 0  1.376121439022882e-12 0.5 0  -0.009999999998640763 0.5 0  -0.01999999999866864 0.5 0  -0.02999999999869629 0.5 0  -0.03999999999872406 0.5 0  -0.04999999999875182 0.5 0  -0.05999999999877947 0.5 0  -0.06999999999880724 0.5 0  -0.079999999998835 0.5 0  -0.08999999999886266 0.5 0  -0.09999999999889042 0.5 0  -0.1099999999989182 0.5 0  -0.1199999999989459 0.5 0  -0.1299999999989737 0.5 0  -0.1399999999990014 0.5 0  -0.1499999999990291 0.5 0  -0.1599999999990568 0.5 0  -0.1699999999990847 0.5 0  -0.1799999999991124 0.5 0  -0.1899999999991401 0.5 0  -0.1999999999991678 0.5 0  -0.2099999999991955 0.5 0  -0.2199999999992234 0.5 0  -0.2299999999992511 0.5 0  -0.2399999999992788 0.5 0  -0.2499999999993066 0.5 0  -0.2599999999993342 0.5 0  -0.269999999999362 0.5 0  -0.2799999999993897 0.5 0  -0.2899999999994175 0.5 0  -0.2999999999994452 0.5 0  -0.3099999999994729 0.5 0  -0.3199999999995007 0.5 0  -0.3299999999995284 0.5 0  -0.3399999999995562 0.5 0  -0.3499999999995839 0.5 0  -0.3599999999996116 0.5 0  -0.3699999999996393 0.5 0  -0.379999999999667 0.5 0  -0.3899999999996949 0.5 0  -0.3999999999997226 0.5 0  -0.4099999999997503 0.5 0  -0.419999999999778 0.5 0  -0.4299999999998058 0.5 0  -0.4399999999998336 0.5 0  -0.4499999999998613 0.5 0  -0.4599999999998891 0.5 0  -0.4699999999999167 0.5 0  -0.4799999999999445 0.5 0  -0.4899999999999722 0.5 0  -0.5 0.4902110204681464 0  -0.5 0.4804459958734807 0  -0.5 0.4707048677450883 0  -0.5 0.4609875815766065 0  -0.5 0.4512940759251849 0  -0.5 0.4416242912883993 0  -0.5 0.4319781678689807 0  -0.5 0.4223556545383647 0  -0.5 0.4127566896324213 0  -0.5 0.4031812128200121 0  -0.5 0.3936291733057916 0  -0.5 0.3841005081172659 0  -0.5 0.3745951585781932 0  -0.5 0.3651130778999337 0  -0.5 0.3556541993788045 0  -0.5 0.3462184677228392 0  -0.5 0.3368058273705318 0  -0.5 0.3274162224888609 0  -0.5 0.3180495969712945 0  -0.5 0.3087058944357755 0  -0.5 0.299385058222682 0  -0.5 0.2900870313927414 0  -0.5 0.2808117567250807 0  -0.5 0.2715591844628491 0  -0.5 0.2623292564012653 0  -0.5 0.253121909553727 0  -0.5 0.2439371050851549 0  -0.5 0.2347747685524501 0  -0.5 0.2256348634421331 0  -0.5 0.2165173209784076 0  -0.5 0.207422087829958 0  -0.5 0.1983491207029381 0  -0.5 0.1892983550950482 0  -0.5 0.1802697378305253 0  -0.5 0.1712632154965152 0  -0.5 0.1622787344187354 0  -0.5 0.1533162406595534 0  -0.5 0.1443756800160514 0  -0.5 0.1354569980180493 0  -0.5 0.1265601399261414 0  -0.5 0.1176850622761093 0  -0.5 0.1088317009011999 0  -0.5 0.09167500000001694 0  -0.5 0.08335000000003931 0  -0.5 0.07502500000006167 0  -0.5 0.06670000000008947 0  -0.5 0.05837500000011001 0  -0.5 0.0500500000001328 0  -0.5 0.0417250000001127 0  -0.5 0.03340000000008944 0  -0.5 0.02507500000006573 0  -0.5 0.01675000000004653 0  -0.5 0.008425000000027341 
[...]
<PointData  Vectors="f_7"> 
<DataArray  type="Float64"  Name="f_7"  NumberOfComponents="3" format="ascii">-6.3739542456379115e-04 2.3616501736196758e-03 0.0000000000000000e+00  0.0000000000000000e+00 0.0000000000000000e+00 0.0000000000000000e+00  0.0000000000000000e+00 0.0000000000000000e+00 0.0000000000000000e+00  -1.3408184141641408e-03 2.4348835733805784e-03 0.0000000000000000e+00  -8.7352996062691033e-04 4.9000000044835349e-03 0.0000000000000000e+00  3.2219317168526585e-04 4.9000000044835349e-03 0.0000000000000000e+00  -2.6749328703343244e-04 5.1263459792459014e-03 0.0000000000000000e+00  -2.4755834825535125e-04 -1.3291891524253250e-04 0.0000000000000000e+00  -1.2962082050582671e-03 2.8026590904181555e-03 0.0000000000000000e+00  -1.2738712697512491e-03 2.0782353657911620e-03 0.0000000000000000e+00  -1.5478247600332650e-04 -1.3199439021408004e-04 0.0000000000000000e+00  -1.1632666844865253e-04 5.1258113590042075e-03 0.0000000000000000e+00  0.0000000000000000e+00 0.0000000000000000e+00 0.0000000000000000e+00  0.0000000000000000e+00 0.0000000000000000e+00 0.0000000000000000e+00  0.0000000000000000e+00 0.0000000000000000e+00 0.0000000000000000e+00  0.0000000000000000e+00 0.0000000000000000e+00 0.0000000000000000e+00  0.0000000000000000e+00 0.0000000000000000e+00 0.0000000000000000e+00  0.0000000000000000e+00 0.0000000000000000e+00 0.0000000000000000e+00  0.0000000000000000e+00 0.0000000000000000e+00 0.0000000000000000e+00  0.0000000000000000e+00 0.0000000000000000e+00 0.0000000000000000e+00  0.0000000000000000e+00 0.0000000000000000e+00 0.0000000000000000e+00  0.0000000000000000e+00 0.0000000000000000e+00 0.0000000000000000e+00  0.0000000000000000e+00 0.0000000000000000e+00 0.0000000000000000e+00  0.0000000000000000e+00 0.0000000000000000e+00 0.0000000000000000e+00  0.0000000000000000e+00 0.0000000000000000e+00 0.0000000000000000e+00  0.0000000000000000e+00 0.0000000000000000e+00 0.0000000000000000e+00  0.0000000000000000e+00 0.0000000000000000e+00 0.0000000000000000e+00  0.0000000000000000e+00 0.0000000000000000e+00 0.0000000000000000e+00  0.0000000000000000e+00 0.0000000000000000e+00 0.0000000000000000e+00  0.0000000000000000e+00 0.0000000000000000e+00 0.0000000000000000e+00  0.0000000000000000e+00 0.0000000000000000e+00 0.0000000000000000e+00  0.0000000000000000e+00 0.0000000000000000e+00 0.0000000000000000e+00  0.0000000000000000e+00 0.0000000000000000e+00 0.0000000000000000e+00  0.0000000000000000e+00 0.0000000000000000e+00 0.0000000000000000e+00  0.0000000000000000e+00 0.0000000000000000e+00 0.0000000000000000e+00  0.0000000000000000e+00 0.0000000000000000e+00 0.0000000000000000e+00  0.0000000000000000e+00 0.0000000000000000e+00 0.0000000000000000e+00  0.0000000000000000e+00 0.0000000000000000e+00 0.0000000000000000e+00  0.0000000000000000e+00 0.0000000000000000e+00 0.0000000000000000e+00  0.0000000000000000e+00 0.0000000000000000e+00 0.0000000000000000e+00  0.0000000000000000e+00 0.0000000000000000e+00 0.0000000000000000e+00  0.0000000000000000e+00 0.0000000000000000e+00 0.0000000000000000e+00  0.0000000000000000e+00 0.0000000000000000e+00 0.0000000000000000e+00  0.0000000000000000e+00 0.0000000000000000e+00 0.0000000000000000e+00  0.0000000000000000e+00 0.0000000000000000e+00 0.0000000000000000e+00  0.0000000000000000e+00 0.0000000000000000e+00 0.0000000000000000e+00  0.0000000000000000e+00 0.0000000000000000e+00 0.0000000000000000e+00  0.0000000000000000e+00 0.0000000000000000e+00 0.0000000000000000e+00  0.0000000000000000e+00 0.0000000000000000e+00 0.0000000000000000e+00  0.0000000000000000e+00 0.0000000000000000e+00 0.0000000000000000e+00  0.0000000000000000e+00 0.0000000000000000e+00 0.0000000000000000e+00  0.0000000000000000e+00 0.0000000000000000e+00 0.0000000000000000e+00  0.0000000000000000e+00 0.0000000000000000e+00 0.0000000000000000e+00  0.0000000000000000e+00 0.0000000000000000e+00 0.0000000000000000e+00  0.0000000000000000e+00 0.0000000000000000e+00 0.0000000000000000e+00  0.0000000000000000e+00 0.0000000000000000e+00 0.0000000000000000e+00  0.0000000000000000e+00 0.0000000000000000e+00 0.0000000000000000e+00  0.0000000000000000e+00 0.0000000000000000e+00 0.0000000000000000e+00  0.0000000000000000e+00 0.0000000000000000e+00 0.0000000000000000e+00  0.0000000000000000e+00 0.0000000000000000e+00 0.0000000000000000e+00  0.0000000000000000e+00 0.0000000000000000e+00 0.0000000000000000e+00  0.0000000000000000e+00 0.0000000000000000e+00 0.0000000000000000e+00  0.0000000000000000e+00 0.0000000000000000e+00 0.0000000000000000e+00  0.0000000000000000e+00 0.0000000000000000e+00 0.0000000000000000e+00  0.0000000000000000e+00 0.0000000000000000e+00 0.0000000000000000e+00  0.0000000000000000e+00 0.0000000000000000e+00 0.0000000000000000e+00  0.0000000000000000e+00 0.0000000000000000e+00 0.0000000000000000e+00  0.0000000000000000e+00 0.0000000000000000e+00 0.0000000000000000e+00  0.0000000000000000e+00 0.0000000000000000e+00 0.0000000000000000e+00  0.0000000000000000e+00 0.0000000000000000e+00 0.0000000000000000e+00  0.0000000000000000e+00 0.0000000000000000e+00 0.0000000000000000e+00  0.0000000000000000e+00 0.0000000000000000e+00 0.0000000000000000e+00  0.0000000000000000e+00 0.0000000000000000e+00 0.0000000000000000e+00  0.0000000000000000e+00 0.0000000000000000e+00 0.0000000000000000e+00  0.0000000000000000e+00 0.0000000000000000e+00 0.0000000000000000e+00  0.0000000000000000e+00 0.0000000000000000e+00 0.0000000000000000e+00  0.0000000000000000e+00 0.0000000000000000e+00 0.0000000000000000e+00  0.0000000000000000e+00 0.0000000000000000e+00 0.0000000000000000e+00  0.0000000000000000e+00 0.0000000000000000e+00 0.0000000000000000e+00  0.0000000000000000e+00 0.0000000000000000e+00 0.0000000000000000e+00  0.0000000000000000e+00 0.0000000000000000e+00 0.0000000000000000e+00  0.0000000000000000e+00 0.0000000000000000e+00 0.0000000000000000e+00  0.0000000000000000e+00 0.0000000000000000e+00 0.0000000000000000e+00  0.0000000000000000e+00 0.0000000000000000e+00 0.0000000000000000e+00  0.0000000000000000e+00 0.0000000000000000e+00 0.0000000000000000e+00  0.0000000000000000e+00 0.0000000000000000e+00 0.0000000000000000e+00  0.0000000000000000e+00 0.0000000000000000e+00 0.0000000000000000e+00  0.0000000000000000e+00 0.0000000000000000e+00 0.0000000000000000e+00  0.0000000000000000e+00 0.0000000000000000e+00 0.0000000000000000e+00  0.0000000000000000e+00 0.0000000000000000e+00 0.0000000000000000e+00  0.0000000000000000e+00 0.0000000000000000e+00 0.0000000000000000e+00  0.0000000000000000e+00 0.0000000000000000e+00 0.0000000000000000e+00  0.0000000000000000e+00 0.0000000000000000e+00 0.0000000000000000e+00  0.0000000000000000e+00 0.0000000000000000e+00 0.0000000000000000e+00  0.0000000000000000e+00 0.0000000000000000e+00 0.0000000000000000e+00  0.0000000000000000e+00 0.0000000000000000e+00 0.0000000000000000e+00  0.0000000000000000e+00 0.0000000000000000e+00 0.0000000000000000e+00  0.0000000000000000e+00 0.0000000000000000e+00 0.0000000000000000e+00  0.0000000000000000e+00 0.0000000000000000e+00 0.0000000000000000e+00  0.0000000000000000e+00 0.0000000000000000e+00 0.0000000000000000e+00  0.0000000000000000e+00 0.0000000000000000e+00 0.0000000000000000e+00  0.0000000000000000e+00 0.0000000000000000e+00 0.0000000000000000e+00  0.0000000000000000e+00 0.0000000000000000e+00 0.0000000000000000e+00  0.0000000000000000e+00 0.0000000000000000e+00 0.0000000000000000e+00  0.0000000000000000e+00 0.0000000000000000e+00 0.0000000000000000e+00  0.0000000000000000e+00 0.0000000000000000e+00 0.0000000000000000e+00  0.0000000000000000e+00 0.0000000000000000e+00 0.0000000000000000e+00  0.0000000000000000e+00 0.0000000000000000e+00 0.0000000000000000e+00  0.0000000000000000e+00 0.0000000000000000e+00 0.0000000000000000e+00  0.0000000000000000e+00 0.0000000000000000e+00 0.0000000000000000e+00  0.0000000000000000e+00 0.0000000000000000e+00 0.0000000000000000e+00  -1.2524227671843768e-04 1.3106982802245742e-04 0.0000000000000000e+00  -2.0422203995872456e-04 2.2494977610847290e-04 0.0000000000000000e+00  -2.6783066372191222e-04 3.0424158152593821e-04 0.0000000000000000e+00  -3.2290788699900158e-04 3.7485166277533005e-04 0.0000000000000000e+00  -3.7190912910495797e-04 4.3975029281978023e-04 0.0000000000000000e+00  -4.1662820407451976e-04 5.0078782921957445e-04 0.0000000000000000e+00  -4.5843637449225676e-04 5.5891051287477002e-04 0.0000000000000000e+00  -4.9688128170886740e-04 6.1491037251625751e-04 0.0000000000000000e+00  -5.3302326709361229e-04 6.6922590204792449e-04 0.0000000000000000e+00  -5.6766348417809306e-04 7.2193570577032537e-04 0.0000000000000000e+00  -6.0053287058631168e-04 7.7364561712936844e-04 0.0000000000000000e+00  -6.3213384783589784e-04 8.2405671473182308e-04 0.0000000000000000e+00  -6.6234398579035269e-04 8.7382869391256163e-04 0.0000000000000000e+00  -6.9170843811573637e-04 9.2246860083489699e-04 0.0000000000000000e+00  -7.2007032750353293e-04 9.7059653316897544e-04 0.0000000000000000e+00  -7.4783855428689700e-04 1.0179043613731020e-03 0.0000000000000000e+00  -7.7461744644151430e-04 1.0645292038079736e-03 0.0000000000000000e+00  -8.0076640980284114e-04 1.1104393069089635e-03 0.0000000000000000e+00  -8.2643415300194447e-04 1.1559333578243457e-03 0.0000000000000000e+00  -8.5137236936902450e-04 1.2006661043964079e-03 0.0000000000000000e+00  -8.7576929880378508e-04 1.2448764884699941e-03 0.0000000000000000e+00  -8.9964900576107833e-04 1.2885429031538422e-03 0.0000000000000000e+00  -9.2302363240002983e-04 1.3316253197127354e-03 0.0000000000000000e+00  -9.4589266716657745e-04 1.3741680963075917e-03 0.0000000000000000e+00  -9.6826815660101568e-04 1.4160971483559673e-03 0.0000000000000000e+00  -9.9014258895048046e-04 1.4574501933165541e-03 0.0000000000000000e+00  -1.0115441813459570e-03 1.4981519058991229e-03 0.0000000000000000e+00  -1.0325844634944069e-03 1.5384965203833628e-03 0.0000000000000000e+00  -1.0529332861910620e-03 1.5781911824960322e-03 0.0000000000000000e+00  -1.0727442325707906e-03 1.6173175422833515e-03 0.0000000000000000e+00  -1.0920362584264729e-03 1.6559442186833060e-03 0.0000000000000000e+00  -1.1108325275746812e-03 1.6939448928706391e-03 0.0000000000000000e+00  -1.1289612806754646e-03 1.7314063934556121e-03 0.0000000000000000e+00  -1.1465702789316681e-03 1.7682426543981931e-03 0.0000000000000000e+00  -1.1635550346180685e-03 1.8046887458312015e-03 0.0000000000000000e+00  -1.1797901673934370e-03 1.8405736931905959e-03 0.0000000000000000e+00  -1.1953917451607411e-03 1.8759616173401610e-03 0.0000000000000000e+00  -1.2103717932965994e-03 1.9107057234738700e-03 0.0000000000000000e+00  -1.2245161694341077e-03 1.9451175314438790e-03 0.0000000000000000e+00  -1.2380383369320887e-03 1.9790157299198205e-03 0.0000000000000000e+00  -1.2507258215044609e-03 2.0125541264283007e-03 0.0000000000000000e+00  -1.2626846266022228e-03 2.0455222267607978e-03 0.0000000000000000e+00  -1.2835841617285272e-03 2.1087697191350973e-03 0.0000000000000000e+00  -1.2926485696914392e-03 2.1389809731006976e-03 0.0000000000000000e+00  -1.3009374333779694e-03 2.1691435335568746e-03 0.0000000000000000e+00  -1.3085095062815341e-03 2.1989473803923744e-03 0.0000000000000000e+00  -1.3153630536479745e-03 2.2287796356731475e-03 0.0000000000000000e+00  -1.3213323266198255e-03 2.2585092729377732e-03 0.0000000000000000e+00  -1.3266020080682471e-03 2.2879097207110662e-03 0.0000000000000000e+00  -1.3310560784988775e-03 2.3173302987375809e-03 0.0000000000000000e+00  -1.3347298622331167e-03 2.3467489232724794e-03 0.0000000000000000e+00  -1.3374631114668339e-03 2.3761962722200903e-03 0.0000000000000000e+00  -1.3395466557021515e-03 2.4054737074381003e-03 0.0000000000000000e+00  -1.3411773274681097e-03 2.4643671316366298e-03 0.0000000000000000e+00  -1.3407840832416410e-03 2.4939071667607637e-03 0.0000000000000000e+00  -1.3396323164633478e-03 2.5237190692376900e-03 0.0000000000000000e+00  -1.3376859684937840e-03 2.5535257243177473e-03 0.0000000000000000e+00  -1.3349977572178096e-03 2.5836989883519781e-03 0.0000000000000000e+00  -1.3315347922328901e-03 2.6141400449729750e-03 0.0000000000000000e+00  -1.3272788246248897e-03 2.6446587525757420e-03 0.0000000000000000e+00  -1.3224062435321792e-03 2.6755922922770880e-03 0.0000000000000000e+00  -1.3168889610936437e-03 2.7068826246772438e-03 0.0000000000000000e+00  -1.3105353281145332e-03 2.7385081827669242e-03 0.0000000000000000e+00  -1.3036750310167248e-03 2.7703345117537559e-03 0.0000000000000000e+00  -1.2875808888915287e-03 2.8374480974704816e-03 0.0000000000000000e+00  -1.2783265491125761e-03 2.8727188486505138e-03 0.0000000000000000e+00  -1.2685039926758632e-03 2.9087254900840181e-03 0.0000000000000000e+00  -1.2580567519064740e-03 2.9452677465168771e-03 0.0000000000000000e+00  -1.2472578990975162e-03 2.9825263114849005e-03 0.0000000000000000e+00  -1.2357948048829308e-03 3.0203468519947340e-03 0.0000000000000000e+00  -1.2239855455010900e-03 3.0589658686795726e-03 0.0000000000000000e+00  -1.2117354107361192e-03 3.0983120667632119e-03 0.0000000000000000e+00  -1.1991358275869812e-03 3.1384179410646924e-03 0.0000000000000000e+00  -1.1861464155027675e-03 3.1791668004619114e-03 0.0000000000000000e+00  -1.1730365226666863e-03 3.2207137247471365e-03 0.0000000000000000e+00  -1.1596298332250004e-03 3.2630177641633598e-03 0.0000000000000000e+00  -1.1461241728123047e-03 3.3060957174897098e-03 0.0000000000000000e+00  -1.1325275170394544e-03 3.3499678726232407e-03 0.0000000000000000e+00  -1.1188427386446091e-03 3.3946164910498892e-03 0.0000000000000000e+00  -1.1050655978809159e-03 3.4400238577309123e-03 0.0000000000000000e+00  -1.0913316100933589e-03 3.4861213504385909e-03 0.0000000000000000e+00  -1.0777501210449706e-03 3.5330129007168061e-03 0.0000000000000000e+00  -1.0643041126859650e-03 3.5806291513231906e-03 0.0000000000000000e+00  -1.0510069770263391e-03 3.6289969597331708e-03 0.0000000000000000e+00  -1.0379266117930099e-03 3.6781263354164692e-03 0.0000000000000000e+00  -1.0250184787161914e-03 3.7279905074752758e-03 0.0000000000000000e+00  -1.0125375038460950e-03 3.7784928176427968e-03 0.0000000000000000e+00  -1.0002849342491793e-03 3.8297311554409668e-03 0.0000000000000000e+00  -9.8849412466186842e-04 3.8815541741380609e-03 0.0000000000000000e+00  -9.7705386271485124e-04 3.9340909667763442e-03 0.0000000000000000e+00  -9.6606481067304029e-04 3.9872391256846225e-03 0.0000000000000000e+00  -9.5558519433567538e-04 4.0409030566479322e-03 0.0000000000000000e+00  -9.4562755445312761e-04 4.0951255177196092e-03 0.0000000000000000e+00  -9.3615033586180556e-04 4.1500122869237883e-03 0.0000000000000000e+00  -9.2734645642871959e-04 4.2052423854284857e-03 0.0000000000000000e+00  -9.1903765672066574e-04 4.2611003856964291e-03 0.0000000000000000e+00  -9.1140791394481993e-04 4.3173907779380264e-03 0.0000000000000000e+00  -9.0441127835998864e-04 4.3742669338395906e-03 0.0000000000000000e+00  -8.9809127695750592e-04 4.4313691549287626e-03 0.0000000000000000e+00  -8.9243735408134795e-04 4.4888558045386015e-03 0.0000000000000000e+00  -8.8752441637526185e-04 4.5468023428478724e-03 0.0000000000000000e+00  -8.8332568474613329e-04 4.6049899110150840e-03 0.0000000000000000e+00  -8.7988104735884287e-04 4.6635228664660428e-03 0.0000000000000000e+00  -8.7710702706963063e-04 4.7223420949937108e-03 0.0000000000000000e+00  -8.7534441368163052e-04 4.7813990968401960e-03 0.0000000000000000e+00  -8.7405387834859304e-04 4.8405967112373979e-03 0.0000000000000000e+00  -8.4783622891553446e-04 4.9000000044835349e-03 0.0000000000000000e+00  -8.2226257504948929e-04 4.9000000044835349e-03 0.0000000000000000e+00  -7.9702048098841127e-04 4.9000000044835349e-03 0.0000000000000000e+00  -7.7199729102502316e-04 4.9000000044835349e-03 0.0000000000000000e+00  -7.4710606745832450e-04 4.9000000044835349e-03 0.0000000000000000e+00  -7.2257545341350036e-04 4.9000000044835349e-03 0.0000000000000000e+00  -6.9809943858672129e-04 4.9000000044835349e-03 0.0000000000000000e+00  -6.7373271599510199e-04 4.9000000044835349e-03 0.0000000000000000e+00  -6.4941866485520867e-04 4.9000000044835349e-03 0.0000000000000000e+00  -6.2537453750222539e-04 4.9000000044835349e-03 0.0000000000000000e+00  -6.0130140521046918e-04 4.9000000044835349e-03 0.0000000000000000e+00  -5.7730136571973901e-04 4.9000000044835349e-03 0.0000000000000000e+00  -5.5336289020614562e-04 4.9000000044835349e-03 0.0000000000000000e+00  -5.2950077621729684e-04 4.9000000044835349e-03 0.0000000000000000e+00  -5.0569556887967591e-04 4.9000000044835349e-03 0.0000000000000000e+00  -4.8187304920809253e-04 4.9000000044835349e-03 0.0000000000000000e+00  -4.5808702972980540e-04 4.9000000044835349e-03 0.0000000000000000e+00  -4.3436000670999059e-04 4.9000000044835349e-03 0.0000000000000000e+00  -4.1069220008105512e-04 4.9000000044835349e-03 0.0000000000000000e+00  -3.8706229722689639e-04 4.9000000044835349e-03 0.0000000000000000e+00  -3.6349538787717193e-04 4.9000000044835349e-03 0.0000000000000000e+00  -3.3999249856960932e-04 4.9000000044835349e-03 0.0000000000000000e+00  -3.1657079947848061e-04 4.9000000044835349e-03 0.0000000000000000e+00  -2.9326096844269073e-04 4.9000000044835349e-03 0.0000000000000000e+00  -2.7002171738688027e-04 4.9000000044835349e-03 0.0000000000000000e+00  -2.4692157609188745e-04 4.9000000044835349e-03 0.0000000000000000e+00  -2.2399016193743850e-04 4.9000000044835349e-03 0.0000000000000000e+00  -2.0118664231935223e-04 4.9000000044835349e-03 0.0000000000000000e+00  -1.7865412552505646e-04 4.9000000044835349e-03 0.0000000000000000e+00  -1.5632396658290867e-04 4.9000000044835349e-03 0.0000000000000000e+00  -1.3421237264434025e-04 4.9000000044835349e-03 0.0000000000000000e+00  -1.1240229312263796e-04 4.9000000044835349e-03 0.0000000000000000e+00  -9.0863182539767821e-05 4.9000000044835349e-03 0.0000000000000000e+00  -6.9554501421559105e-05 4.9000000044835349e-03 0.0000000000000000e+00  -4.8752980703729465e-05 4.9000000044835349e-03 0.0000000000000000e+00  -2.8242550956873750e-05 4.9000000044835349e-03 0.0000000000000000e+00  -8.1344299268278239e-06 4.9000000044835349e-03 0.0000000000000000e+00  1.1543461235616086e-05 4.9000000044835349e-03 0.0000000000000000e+00  3.0877170192217405e-05 4.9000000044835349e-03 0.0000000000000000e+00  4.9651865962049683e-05 4.9000000044835349e-03 0.0000000000000000e+00  6.7904062764857160e-05 4.9000000044835349e-03 0.0000000000000000e+00  8.5600490193119854e-05 4.9000000044835349e-03 0.0000000000000000e+00  1.0284220270663420e-04 4.9000000044835349e-03 0.0000000000000000e+00  1.1961244369476373e-04 4.9000000044835349e-03 0.0000000000000000e+00  1.3566386096896738e-04 4.9000000044835349e-03 0.0000000000000000e+00  1.5127051432041867e-04 4.9000000044835349e-03 0.0000000000000000e+00  1.6630374179719477e-04 4.9000000044835349e-03 0.0000000000000000e+00  1.8052184658934431e-04 4.9000000044835349e-03 0.0000000000000000e+00  1.9424213890807703e-04 4.9000000044835349e-03 0.0000000000000000e+00  2.0745611493898095e-04 4.9000000044835349e-03 0.0000000000000000e+00  2.2001493230188479e-04 4.9000000044835349e-03 0.0000000000000000e+00  2.3185916310066823e-04 4.9000000044835349e-03 0.0000000000000000e+00  2.4309918244252459e-04 4.9000000044835349e-03 0.0000000000000000e+00  2.5381823374543300e-04 4.9000000044835349e-03 0.0000000000000000e+00  2.6384856648984224e-04 4.9000000044835349e-03 0.0000000000000000e+00  2.7325932753937115e-04 4.9000000044835349e-03 0.0000000000000000e+00  2.8212608983609213e-04 4.9000000044835349e-03 0.0000000000000000e+00  2.9046196773643558e-04 4.9000000044835349e-03 0.0000000000000000e+00  2.9806415055592679e-04 4.9000000044835349e-03 0.0000000000000000e+00  3.0522594929749809e-04 4.9000000044835349e-03 0.0000000000000000e+00  3.1180661022725602e-04 4.9000000044835349e-03 0.0000000000000000e+00  3.1785221412168434e-04 4.9000000044835349e-03 0.0000000000000000e+00  3.2332747148241831e-04 4.9000000044835349e-03 0.0000000000000000e+00  3.2841719331250561e-04 4.9000000044835349e-03 0.0000000000000000e+00  3.3306342694574463e-04 4.9000000044835349e-03 0.0000000000000000e+00  