<?xml version="1.0"?>
<VTKFile type="UnstructuredGrid"  version="0.1"  >
<UnstructuredGrid>
<Piece  NumberOfPoints="15540" NumberOfCells="30546">
<Points>
<DataArray  type="Float64"  NumberOfComponents="3"  format="ascii">0 0 0  -0.5 -0.5 0  0.5 -0.5 0  0.5 0 0  0.5 0.5 0  -0.5 0.5 0  -0.5 0.0001 0  -0.5 -0.0001 0  0.5 0.1 0  0.5 -0.1 0  -0.5 -0.1 0  -0.5 0.1 0  -0.4900000000000277 -0.5 0  -0.4800000000000555 -0.5 0  -0.4700000000000832 -0.5 0  -0.4600000000001109 -0.5 0  -0.4500000000001387 -0.5 0  -0.4400000000001664 -0.5 0  -0.4300000000001942 -0.5 0  -0.4200000000002219 -0.5 0  -0.4100000000002497 -0.5 0  -0.4000000000002774 -0.5 0  -0.3900000000003052 -0.5 0  -0.3800000000003328 -0.5 0  -0.3700000000003606 -0.5 0  -0.3600000000003883 -0.5 0  -0.3500000000004161 -0.5 0  -0.3400000000004438 -0.5 0  -0.3300000000004716 -0.5 0  -0.3200000000004993 -0.5 0  -0.3100000000005271 -0.5 0  -0.3000000000005548 -0.5 0  -0.2900000000005825 -0.5 0  -0.2800000000006103 -0.5 0  -0.2700000000006381 -0.5 0  -0.2600000000006658 -0.5 0  -0.2500000000006935 -0.5 0  -0.2400000000007212 -0.5 0  -0.230000000000749 -0.5 0  -0.2200000000007767 -0.5 0  -0.2100000000008044 -0.5 0  -0.2000000000008322 -0.5 0  -0.19000000000086 -0.5 0  -0.1800000000008877 -0.5 0  -0.1700000000009154 -0.5 0  -0.1600000000009431 -0.5 0  -0.1500000000009709 -0.5 0  -0.1400000000009986 -0.5 0  -0.1300000000010264 -0.5 0  -0.1200000000010541 -0.5 0  -0.1100000000010818 -0.5 0  -0.1000000000011096 -0.5 0  -0.09000000000113734 -0.5 0  -0.08000000000116503 -0.5 0  -0.07000000000119283 -0.5 0  -0.06000000000122058 -0.5 0  -0.05000000000124827 -0.5 0  -0.04000000000127607 -0.5 0  -0.03000000000130376 -0.5 0  -0.02000000000133151 -0.5 0  -0.01000000000135925 -0.5 0  -1.376121439022882e-12 -0.5 0  0.009999999998640763 -0.5 0  0.01999999999866864 -0.5 0  0.02999999999869629 -0.5 0  0.03999999999872406 -0.5 0  0.04999999999875182 -0.5 0  0.05999999999877947 -0.5 0  0.06999999999880724 -0.5 0  0.079999999998835 -0.5 0  0.08999999999886266 -0.5 0  0.09999999999889042 -0.5 0  0.1099999999989182 -0.5 0  0.1199999999989459 -0.5 0  0.1299999999989737 -0.5 0  0.1399999999990014 -0.5 0  0.1499999999990291 -0.5 0  0.1599999999990568 -0.5 0  0.1699999999990847 -0.5 0  0.1799999999991124 -0.5 0  0.1899999999991401 -0.5 0  0.1999999999991678 -0.5 0  0.2099999999991955 -0.5 0  0.2199999999992234 -0.5 0  0.2299999999992511 -0.5 0  0.2399999999992788 -0.5 0  0.2499999999993066 -0.5 0  0.2599999999993342 -0.5 0  0.269999999999362 -0.5 0  0.2799999999993897 -0.5 0  0.2899999999994175 -0.5 0  0.2999999999994452 -0.5 0  0.3099999999994729 -0.5 0  0.3199999999995007 -0.5 0  0.3299999999995284 -0.5 0  0.3399999999995562 -0.5 0  0.3499999999995839 -0.5 0  0.3599999999996116 -0.5 0  0.3699999999996393 -0.5 0  0.379999999999667 -0.5 0  0.3899999999996949 -0.5 0  0.3999999999997226 -0.5 0  0.4099999999997503 -0.5 0  0.419999999999778 -0.5 0  0.4299999999998058 -0.5 0  0.4399999999998336 -0.5 0  0.4499999999998613 -0.5 0  0.4599999999998891 -0.5 0  0.4699999999999167 -0.5 0  0.4799999999999445 -0.5 0  0.4899999999999722 -0.5 0  0.5 -0.4902110204681464 0  0.5 -0.4804459958734807 0  0.5 -0.4707048677450883 0  0.5 -0.4609875815766065 0  0.5 -0.4512940759251849 0  0.5 -0.4416242912883993 0  0.5 -0.4319781678689807 0  0.5 -0.4223556545383647 0  0.5 -0.4127566896324213 0  0.5 -0.4031812128200121 0  0.5 -0.3936291733057916 0  0.5 -0.3841005081172659 0  0.5 -0.3745951585781932 0  0.5 -0.3651130778999337 0  0.5 -0.3556541993788045 0  0.5 -0.3462184677228392 0  0.5 -0.3368058273705318 0  0.5 -0.3274162224888609 0  0.5 -0.3180495969712945 0  0.5 -0.3087058944357755 0  0.5 -0.299385058222682 0  0.5 -0.2900870313927414 0  0.5 -0.2808117567250807 0  0.5 -0.2715591844628491 0  0.5 -0.2623292564012653 0  0.5 -0.253121909553727 0  0.5 -0.2439371050851549 0  0.5 -0.2347747685524501 0  0.5 -0.2256348634421331 0  0.5 -0.2165173209784076 0  0.5 -0.207422087829958 0  0.5 -0.1983491207029381 0  0.5 -0.1892983550950482 0  0.5 -0.1802697378305253 0  0.5 -0.1712632154965152 0  0.5 -0.1622787344187354 0  0.5 -0.1533162406595534 0  0.5 -0.1443756800160514 0  0.5 -0.1354569980180493 0  0.5 -0.1265601399261414 0  0.5 -0.1176850622761093 0  0.5 -0.1088317009011999 0  0.5 -0.09166666666668973 0  0.5 -0.08333333333337943 0  0.5 -0.07500000000006915 0  0.5 -0.06666666666675886 0  0.5 -0.05833333333344858 0  0.5 -0.05000000000013693 0  0.5 -0.04166666666678191 0  0.5 -0.03333333333342643 0  0.5 -0.02500000000006916 0  0.5 -0.01666666666671188 0  0.5 -0.00833333333335548 0  0.5 0.008333333333318314 0  0.5 0.01666666666663358 0  0.5 0.02499999999994162 0  0.5 0.03333333333325101 0  0.5 0.04166666666655769 0  0.5 0.04999999999986843 0  0.5 0.05833333333322258 0  0.5 0.06666666666657715 0  0.5 0.07499999999993352 0  0.5 0.08333333333328992 0  0.5 0.09166666666664541 0  0.5 0.1088317009011616 0  0.5 0.1176850622760307 0  0.5 0.1265601399260203 0  0.5 0.1354569980178909 0  0.5 0.1443756800158549 0  0.5 0.153316240659315 0  0.5 0.1622787344184454 0  0.5 0.1712632154961752 0  0.5 0.1802697378301332 0  0.5 0.1892983550946039 0  0.5 0.1983491207024433 0  0.5 0.2074220878294123 0  0.5 0.216517320977811 0  0.5 0.2256348634414833 0  0.5 0.2347747685517479 0  0.5 0.2439371050844009 0  0.5 0.2531219095529224 0  0.5 0.2623292564004089 0  0.5 0.2715591844619371 0  0.5 0.2808117567241139 0  0.5 0.290087031391723 0  0.5 0.2993850582216101 0  0.5 0.3087058944347426 0  0.5 0.3180495969703129 0  0.5 0.3274162224879299 0  0.5 0.3368058273696494 0  0.5 0.3462184677220051 0  0.5 0.3556541993780186 0  0.5 0.3651130778991989 0  0.5 0.3745951585775107 0  0.5 0.3841005081166359 0  0.5 0.3936291733052134 0  0.5 0.4031812128194852 0  0.5 0.412756689631945 0  0.5 0.4223556545379392 0  0.5 0.431978167868607 0  0.5 0.4416242912880781 0  0.5 0.4512940759249164 0  0.5 0.4609875815763912 0  0.5 0.4707048677449264 0  0.5 0.4804459958733726 0  0.5 0.4902110204680924 0  0.4900000000000277 0.5 0  0.4800000000000555 0.5 0  0.4700000000000832 0.5 0  0.4600000000001109 0.5 0  0.4500000000001387 0.5 0  0.4400000000001664 0.5 0  0.4300000000001942 0.5 0  0.4200000000002219 0.5 0  0.4100000000002497 0.5 0  0.4000000000002774 0.5 0  0.3900000000003052 0.5 0  0.3800000000003328 0.5 0  0.3700000000003606 0.5 0  0.3600000000003883 0.5 0  0.3500000000004161 0.5 0  0.3400000000004438 0.5 0  0.3300000000004716 0.5 0  0.3200000000004993 0.5 0  0.3100000000005271 0.5 0  0.3000000000005548 0.5 0  0.2900000000005825 0.5 0  0.2800000000006103 0.5 0  0.2700000000006381 0.5 0  0.2600000000006658 0.5 0  0.2500000000006935 0.5 0  0.2400000000007212 0.5 0  0.230000000000749 0.5 0  0.2200000000007767 0.5 0  0.2100000000008044 0.5 0  0.2000000000008322 0.5 0  0.19000000000086 0.5 0  0.1800000000008877 0.5 0  0.1700000000009154 0.5 0  0.1600000000009431 0.5 0  0.1500000000009709 0.5 0  0.1400000000009986 0.5 0  0.1300000000010264 0.5 0  0.1200000000010541 0.5 0  0.1100000000010818 0.5 0  0.1000000000011096 0.5 0  0.09000000000113734 0.5 0  0.08000000000116503 0.5 0  0.07000000000119283 0.5 0  0.06000000000122058 0.5 0  0.05000000000124827 0.5 0  0.04000000000127607 0.5 0  0.03000000000130376 0.5 0  0.02000000000133151 0.5 0  0.01000000000135925 0.5 0  1.376121439022882e-12 0.5 0  -0.009999999998640763 0.5 0  -0.01999999999866864 0.5 0  -0.02999999999869629 0.5 0  -0.03999999999872406 0.5 0  -0.04999999999875182 0.5 0  -0.05999999999877947 0.5 0  -0.06999999999880724 0.5 0  -0.079999999998835 0.5 0  -0.08999999999886266 0.5 0  -0.09999999999889042 0.5 0  -0.1099999999989182 0.5 0  -0.1199999999989459 0.5 0  -0.1299999999989737 0.5 0  -0.1399999999990014 0.5 0  -0.1499999999990291 0.5 0  -0.1599999999990568 0.5 0  -0.1699999999990847 0.5 0  -0.1799999999991124 0.5 0  -0.1899999999991401 0.5 0  -0.1999999999991678 0.5 0  -0.2099999999991955 0.5 0  -0.2199999999992234 0.5 0  -0.2299999999992511 0.5 0  -0.2399999999992788 0.5 0  -0.2499999999993066 0.5 0  -0.2599999999993342 0.5 0  -0.269999999999362 0.5 0  -0.2799999999993897 0.5 0  -0.2899999999994175 0.5 0  -0.2999999999994452 0.5 0  -0.3099999999994729 0.5 0  -0.3199999999995007 0.5 0  -0.3299999999995284 0.5 0  -0.3399999999995562 0.5 0  -0.3499999999995839 0.5 0  -0.3599999999996116 0.5 0  -0.3699999999996393 0.5 0  -0.379999999999667 0.5 0  -0.3899999999996949 0.5 0  -0.3999999999997226 0.5 0  -0.4099999999997503 0.5 0  -0.419999999999778 0.5 0  -0.4299999999998058 0.5 0  -0.4399999999998336 0.5 0  -0.4499999999998613 0.5 0  -0.4599999999998891 0.5 0  -0.4699999999999167 0.5 0  -0.4799999999999445 0.5 0  -0.4899999999999722 0.5 0  -0.5 0.4902110204681464 0  -0.5 0.4804459958734807 0  -0.5 0.4707048677450883 0  -0.5 0.4609875815766065 0  -0.5 0.4512940759251849 0  -0.5 0.4416242912883993 0  -0.5 0.4319781678689807 0  -0.5 0.4223556545383647 0  -0.5 0.4127566896324213 0  -0.5 0.4031812128200121 0  -0.5 0.3936291733057916 0  -0.5 0.3841005081172659 0  -0.5 0.3745951585781932 0  -0.5 0.3651130778999337 0  -0.5 0.3556541993788045 0  -0.5 0.3462184677228392 0  -0.5 0.3368058273705318 0  -0.5 0.3274162224888609 0  -0.5 0.3180495969712945 0  -0.5 0.3087058944357755 0  -0.5 0.299385058222682 0  -0.5 0.2900870313927414 0  -0.5 0.2808117567250807 0  -0.5 0.2715591844628491 0  -0.5 0.2623292564012653 0  -0.5 0.253121909553727 0  -0.5 0.2439371050851549 0  -0.5 0.2347747685524501 0  -0.5 0.2256348634421331 0  -0.5 0.2165173209784076 0  -0.5 0.207422087829958 0  -0.5 0.1983491207029381 0  -0.5 0.1892983550950482 0  -0.5 0.1802697378305253 0  -0.5 0.1712632154965152 0  -0.5 0.1622787344187354 0  -0.5 0.1533162406595534 0  -0.5 0.1443756800160514 0  -0.5 0.1354569980180493 0  -0.5 0.1265601399261414 0  -0.5 0.1176850622761093 0  -0.5 0.1088317009011999 0  -0.5 0.09167500000001694 0  -0.5 0.08335000000003931 0  -0.5 0.07502500000006167 0  -0.5 0.06670000000008947 0  -0.5 0.05837500000011001 0  -0.5 0.0500500000001328 0  -0.5 0.0417250000001127 0  -0.5 0.03340000000008944 0  -0.5 0.02507500000006573 0  -0.5 0.01675000000004653 0  -0.5 0.008425000000027341 
[...]
<PointData  Vectors="f_7"> 
<DataArray  type="Float64"  Name="f_7"  NumberOfComponents="3" format="ascii">-4.6967109961815288e-04 1.6913138362280051e-03 0.0000000000000000e+00  0.0000000000000000e+00 0.0000000000000000e+00 0.0000000000000000e+00  0.0000000000000000e+00 0.0000000000000000e+00 0.0000000000000000e+00  -9.3494454497853154e-04 1.7407072070390606e-03 0.0000000000000000e+00  -6.4008862323932986e-04 3.5000000004217070e-03 0.0000000000000000e+00  2.7098438684583943e-04 3.5000000004217070e-03 0.0000000000000000e+00  -1.8845893514205932e-04 3.6702451404898545e-03 0.0000000000000000e+00  -1.7155017313788158e-04 -9.5345520890016615e-05 0.0000000000000000e+00  -9.0748789705007648e-04 2.0153086065187397e-03 0.0000000000000000e+00  -8.8998218319011118e-04 1.4740399693419092e-03 0.0000000000000000e+00  -9.9953904443091164e-05 -9.4539107912008604e-05 0.0000000000000000e+00  -6.9328761408504969e-05 3.6697627889579472e-03 0.0000000000000000e+00  0.0000000000000000e+00 0.0000000000000000e+00 0.0000000000000000e+00  0.0000000000000000e+00 0.0000000000000000e+00 0.0000000000000000e+00  0.0000000000000000e+00 0.0000000000000000e+00 0.0000000000000000e+00  0.0000000000000000e+00 0.0000000000000000e+00 0.0000000000000000e+00  0.0000000000000000e+00 0.0000000000000000e+00 0.0000000000000000e+00  0.0000000000000000e+00 0.0000000000000000e+00 0.0000000000000000e+00  0.0000000000000000e+00 0.0000000000000000e+00 0.0000000000000000e+00  0.0000000000000000e+00 0.0000000000000000e+00 0.0000000000000000e+00  0.0000000000000000e+00 0.0000000000000000e+00 0.0000000000000000e+00  0.0000000000000000e+00 0.0000000000000000e+00 0.0000000000000000e+00  0.0000000000000000e+00 0.0000000000000000e+00 0.0000000000000000e+00  0.0000000000000000e+00 0.0000000000000000e+00 0.0000000000000000e+00  0.0000000000000000e+00 0.0000000000000000e+00 0.0000000000000000e+00  0.0000000000000000e+00 0.0000000000000000e+00 0.0000000000000000e+00  0.0000000000000000e+00 0.0000000000000000e+00 0.0000000000000000e+00  0.0000000000000000e+00 0.0000000000000000e+00 0.0000000000000000e+00  0.0000000000000000e+00 0.0000000000000000e+00 0.0000000000000000e+00  0.0000000000000000e+00 0.0000000000000000e+00 0.0000000000000000e+00  0.0000000000000000e+00 0.0000000000000000e+00 0.0000000000000000e+00  0.0000000000000000e+00 0.0000000000000000e+00 0.0000000000000000e+00  0.0000000000000000e+00 0.0000000000000000e+00 0.0000000000000000e+00  0.0000000000000000e+00 0.0000000000000000e+00 0.0000000000000000e+00  0.0000000000000000e+00 0.0000000000000000e+00 0.0000000000000000e+00  0.0000000000000000e+00 0.0000000000000000e+00 0.0000000000000000e+00  0.0000000000000000e+00 0.0000000000000000e+00 0.0000000000000000e+00  0.0000000000000000e+00 0.0000000000000000e+00 0.0000000000000000e+00  0.0000000000000000e+00 0.0000000000000000e+00 0.0000000000000000e+00  0.0000000000000000e+00 0.0000000000000000e+00 0.0000000000000000e+00  0.0000000000000000e+00 0.0000000000000000e+00 0.0000000000000000e+00  0.0000000000000000e+00 0.0000000000000000e+00 0.0000000000000000e+00  0.0000000000000000e+00 0.0000000000000000e+00 0.0000000000000000e+00  0.0000000000000000e+00 0.0000000000000000e+00 0.0000000000000000e+00  0.0000000000000000e+00 0.0000000000000000e+00 0.0000000000000000e+00  0.0000000000000000e+00 0.0000000000000000e+00 0.0000000000000000e+00  0.0000000000000000e+00 0.0000000000000000e+00 0.0000000000000000e+00  0.0000000000000000e+00 0.0000000000000000e+00 0.0000000000000000e+00  0.0000000000000000e+00 0.0000000000000000e+00 0.0000000000000000e+00  0.0000000000000000e+00 0.0000000000000000e+00 0.0000000000000000e+00  0.0000000000000000e+00 0.0000000000000000e+00 0.0000000000000000e+00  0.0000000000000000e+00 0.0000000000000000e+00 0.0000000000000000e+00  0.0000000000000000e+00 0.0000000000000000e+00 0.0000000000000000e+00  0.0000000000000000e+00 0.0000000000000000e+00 0.0000000000000000e+00  0.0000000000000000e+00 0.0000000000000000e+00 0.0000000000000000e+00  0.0000000000000000e+00 0.0000000000000000e+00 0.0000000000000000e+00  0.0000000000000000e+00 0.0000000000000000e+00 0.0000000000000000e+00  0.0000000000000000e+00 0.0000000000000000e+00 0.0000000000000000e+00  0.0000000000000000e+00 0.0000000000000000e+00 0.0000000000000000e+00  0.0000000000000000e+00 0.0000000000000000e+00 0.0000000000000000e+00  0.0000000000000000e+00 0.0000000000000000e+00 0.0000000000000000e+00  0.0000000000000000e+00 0.0000000000000000e+00 0.0000000000000000e+00  0.0000000000000000e+00 0.0000000000000000e+00 0.0000000000000000e+00  0.0000000000000000e+00 0.0000000000000000e+00 0.0000000000000000e+00  0.0000000000000000e+00 0.0000000000000000e+00 0.0000000000000000e+00  0.0000000000000000e+00 0.0000000000000000e+00 0.0000000000000000e+00  0.0000000000000000e+00 0.0000000000000000e+00 0.0000000000000000e+00  0.0000000000000000e+00 0.0000000000000000e+00 0.0000000000000000e+00  0.0000000000000000e+00 0.0000000000000000e+00 0.0000000000000000e+00  0.0000000000000000e+00 0.0000000000000000e+00 0.0000000000000000e+00  0.0000000000000000e+00 0.0000000000000000e+00 0.0000000000000000e+00  0.0000000000000000e+00 0.0000000000000000e+00 0.0000000000000000e+00  0.0000000000000000e+00 0.0000000000000000e+00 0.0000000000000000e+00  0.0000000000000000e+00 0.0000000000000000e+00 0.0000000000000000e+00  0.0000000000000000e+00 0.0000000000000000e+00 0.0000000000000000e+00  0.0000000000000000e+00 0.0000000000000000e+00 0.0000000000000000e+00  0.0000000000000000e+00 0.0000000000000000e+00 0.0000000000000000e+00  0.0000000000000000e+00 0.0000000000000000e+00 0.0000000000000000e+00  0.0000000000000000e+00 0.0000000000000000e+00 0.0000000000000000e+00  0.0000000000000000e+00 0.0000000000000000e+00 0.0000000000000000e+00  0.0000000000000000e+00 0.0000000000000000e+00 0.0000000000000000e+00  0.0000000000000000e+00 0.0000000000000000e+00 0.0000000000000000e+00  0.0000000000000000e+00 0.0000000000000000e+00 0.0000000000000000e+00  0.0000000000000000e+00 0.0000000000000000e+00 0.0000000000000000e+00  0.0000000000000000e+00 0.0000000000000000e+00 0.0000000000000000e+00  0.0000000000000000e+00 0.0000000000000000e+00 0.0000000000000000e+00  0.0000000000000000e+00 0.0000000000000000e+00 0.0000000000000000e+00  0.0000000000000000e+00 0.0000000000000000e+00 0.0000000000000000e+00  0.0000000000000000e+00 0.0000000000000000e+00 0.0000000000000000e+00  0.0000000000000000e+00 0.0000000000000000e+00 0.0000000000000000e+00  0.0000000000000000e+00 0.0000000000000000e+00 0.0000000000000000e+00  0.0000000000000000e+00 0.0000000000000000e+00 0.0000000000000000e+00  0.0000000000000000e+00 0.0000000000000000e+00 0.0000000000000000e+00  0.0000000000000000e+00 0.0000000000000000e+00 0.0000000000000000e+00  0.0000000000000000e+00 0.0000000000000000e+00 0.0000000000000000e+00  0.0000000000000000e+00 0.0000000000000000e+00 0.0000000000000000e+00  0.0000000000000000e+00 0.0000000000000000e+00 0.0000000000000000e+00  0.0000000000000000e+00 0.0000000000000000e+00 0.0000000000000000e+00  0.0000000000000000e+00 0.0000000000000000e+00 0.0000000000000000e+00  0.0000000000000000e+00 0.0000000000000000e+00 0.0000000000000000e+00  0.0000000000000000e+00 0.0000000000000000e+00 0.0000000000000000e+00  0.0000000000000000e+00 0.0000000000000000e+00 0.0000000000000000e+00  0.0000000000000000e+00 0.0000000000000000e+00 0.0000000000000000e+00  0.0000000000000000e+00 0.0000000000000000e+00 0.0000000000000000e+00  0.0000000000000000e+00 0.0000000000000000e+00 0.0000000000000000e+00  0.0000000000000000e+00 0.0000000000000000e+00 0.0000000000000000e+00  0.0000000000000000e+00 0.0000000000000000e+00 0.0000000000000000e+00  0.0000000000000000e+00 0.0000000000000000e+00 0.0000000000000000e+00  0.0000000000000000e+00 0.0000000000000000e+00 0.0000000000000000e+00  0.0000000000000000e+00 0.0000000000000000e+00 0.0000000000000000e+00  0.0000000000000000e+00 0.0000000000000000e+00 0.0000000000000000e+00  -8.5750137457354930e-05 8.9301583101077328e-05 0.0000000000000000e+00  -1.4106930364518876e-04 1.5365288880876674e-04 0.0000000000000000e+00  -1.8621712453461810e-04 2.0814913196370741e-04 0.0000000000000000e+00  -2.2580818893483263e-04 2.5704347925378606e-04 0.0000000000000000e+00  -2.6124624637332991e-04 3.0210929908442449e-04 0.0000000000000000e+00  -2.9369257783531445e-04 3.4461820132163096e-04 0.0000000000000000e+00  -3.2407408546562577e-04 3.8519177267864172e-04 0.0000000000000000e+00  -3.5199535188330707e-04 4.2440622222319276e-04 0.0000000000000000e+00  -3.7820920447144776e-04 4.6251661941651244e-04 0.0000000000000000e+00  -4.0328723044833907e-04 4.9954473376628904e-04 0.0000000000000000e+00  -4.2699097119775154e-04 5.3592860768689860e-04 0.0000000000000000e+00  -4.4971330655019947e-04 5.7143853450612140e-04 0.0000000000000000e+00  -4.7133176461576585e-04 6.0656418347719988e-04 0.0000000000000000e+00  -4.9227979278164337e-04 6.4091055641389029e-04 0.0000000000000000e+00  -5.1242051502238886e-04 6.7494635081055568e-04 0.0000000000000000e+00  -5.3206619700086808e-04 7.0842556958800225e-04 0.0000000000000000e+00  -5.5091944279429741e-04 7.4147302305046332e-04 0.0000000000000000e+00  -5.6925797435106792e-04 7.7403208077173134e-04 0.0000000000000000e+00  -5.8719032552642658e-04 8.0634187791928514e-04 0.0000000000000000e+00  -6.0453811585200806e-04 8.3814432781198587e-04 0.0000000000000000e+00  -6.2144540653721045e-04 8.6961121854148174e-04 0.0000000000000000e+00  -6.3792388609153791e-04 9.0073838341657127e-04 0.0000000000000000e+00  -6.5400650332491576e-04 9.3148369559086202e-04 0.0000000000000000e+00  -6.6968421304179604e-04 9.6188838256891095e-04 0.0000000000000000e+00  -6.8497406060405181e-04 9.9189663367758711e-04 0.0000000000000000e+00  -6.9987326735481965e-04 1.0215374950339907e-03 0.0000000000000000e+00  -7.1440340128918044e-04 1.0507575231430688e-03 0.0000000000000000e+00  -7.2865099660596047e-04 1.0797688003040700e-03 0.0000000000000000e+00  -7.4238897081191151e-04 1.1083674314362520e-03 0.0000000000000000e+00  -7.5573419390134158e-04 1.1366072710716512e-03 0.0000000000000000e+00  -7.6870112623727562e-04 1.1645426978067093e-03 0.0000000000000000e+00  -7.8131066855133247e-04 1.1920795067399189e-03 0.0000000000000000e+00  -7.9345195908901191e-04 1.2192821759243187e-03 0.0000000000000000e+00  -8.0522139423082958e-04 1.2460913067667701e-03 0.0000000000000000e+00  -8.1656246996731491e-04 1.2726646947399728e-03 0.0000000000000000e+00  -8.2738600834418661e-04 1.2988904971674177e-03 0.0000000000000000e+00  -8.3778094217831203e-04 1.3248073544345057e-03 0.0000000000000000e+00  -8.4775175395163051e-04 1.3503167438570914e-03 0.0000000000000000e+00  -8.5716554176849347e-04 1.3756259260220259e-03 0.0000000000000000e+00  -8.6615777798788006e-04 1.4006138474499971e-03 0.0000000000000000e+00  -8.7459316752689178e-04 1.4253821240504884e-03 0.0000000000000000e+00  -8.8254431817908190e-04 1.4497877875599243e-03 0.0000000000000000e+00  -8.9644438327799651e-04 1.4967254224270555e-03 0.0000000000000000e+00  -9.0247686571876375e-04 1.5192131916845911e-03 0.0000000000000000e+00  -9.0799990058141396e-04 1.5416836428160160e-03 0.0000000000000000e+00  -9.1304991836136447e-04 1.5639342094474404e-03 0.0000000000000000e+00  -9.1762656235038799e-04 1.5862152591834679e-03 0.0000000000000000e+00  -9.2162621930917893e-04 1.6084428425730474e-03 0.0000000000000000e+00  -9.2516325405317629e-04 1.6304654553037133e-03 0.0000000000000000e+00  -9.2816920088539172e-04 1.6525132605802340e-03 0.0000000000000000e+00  -9.3066556225582394e-04 1.6745702025311180e-03 0.0000000000000000e+00  -9.3254789039011227e-04 1.6966537784662292e-03 0.0000000000000000e+00  -9.3400966938055540e-04 1.7186337420546933e-03 0.0000000000000000e+00  -9.3528670824549970e-04 1.7628327298208097e-03 0.0000000000000000e+00  -9.3514222348447574e-04 1.7850005478076802e-03 0.0000000000000000e+00  -9.3450755358611575e-04 1.8073471654930025e-03 0.0000000000000000e+00  -9.3335838777008396e-04 1.8296934683001672e-03 0.0000000000000000e+00  -9.3173122385665683e-04 1.8522774030222751e-03 0.0000000000000000e+00  -9.2960651514031000e-04 1.8750335299024209e-03 0.0000000000000000e+00  -9.2696853680139090e-04 1.8978395285049921e-03 0.0000000000000000e+00  -9.2393523412904186e-04 1.9209121110982409e-03 0.0000000000000000e+00  -9.2048690156313977e-04 1.9442119991772181e-03 0.0000000000000000e+00  -9.1650100208883259e-04 1.9677203034109084e-03 0.0000000000000000e+00  -9.1218875774073472e-04 1.9913554301476057e-03 0.0000000000000000e+00  -9.0205108688007081e-04 2.0410255640898912e-03 0.0000000000000000e+00  -8.9621153909988480e-04 2.0670561381071094e-03 0.0000000000000000e+00  -8.9001219578268577e-04 2.0935613849799866e-03 0.0000000000000000e+00  -8.8341432692291160e-04 2.1204018782531708e-03 0.0000000000000000e+00  -8.7659763311648026e-04 2.1477021021801788e-03 0.0000000000000000e+00  -8.6935711287541807e-04 2.1753605867546387e-03 0.0000000000000000e+00  -8.6190099920208573e-04 2.2035275586643182e-03 0.0000000000000000e+00  -8.5416444863266252e-04 2.2321568856630506e-03 0.0000000000000000e+00  -8.4620999206411261e-04 2.2612604165463154e-03 0.0000000000000000e+00  -8.3800580139777470e-04 2.2907716393534084e-03 0.0000000000000000e+00  -8.2972847285977614e-04 2.3207850976869598e-03 0.0000000000000000e+00  -8.2126179870359057e-04 2.3512719436121379e-03 0.0000000000000000e+00  -8.1273307323730527e-04 2.3822449207892781e-03 0.0000000000000000e+00  -8.0414452889277768e-04 2.4137147500919794e-03 0.0000000000000000e+00  -7.9549938529561537e-04 2.4456739671472431e-03 0.0000000000000000e+00  -7.8679732516122184e-04 2.4780947003555090e-03 0.0000000000000000e+00  -7.7811482453325504e-04 2.5109469369986896e-03 0.0000000000000000e+00  -7.6953015860347967e-04 2.5442957413388833e-03 0.0000000000000000e+00  -7.6103023910794882e-04 2.5780938683524213e-03 0.0000000000000000e+00  -7.5262260857889094e-04 2.6123589398389878e-03 0.0000000000000000e+00  -7.4434850981236489e-04 2.6470995434305991e-03 0.0000000000000000e+00  -7.3618113057007692e-04 2.6823026626587418e-03 0.0000000000000000e+00  -7.2828409557598392e-04 2.7178932576684294e-03 0.0000000000000000e+00  -7.2052302745543185e-04 2.7539506742762080e-03 0.0000000000000000e+00  -7.1305707760714880e-04 2.7903647956561261e-03 0.0000000000000000e+00  -7.0580554995141990e-04 2.8272298107769964e-03 0.0000000000000000e+00  -6.9884073155921972e-04 2.8644850244163599e-03 0.0000000000000000e+00  -6.9219750114389339e-04 2.9020502984091873e-03 0.0000000000000000e+00  -6.8588597198214886e-04 2.9399707160713399e-03 0.0000000000000000e+00  -6.7987224607981612e-04 2.9783096985056563e-03 0.0000000000000000e+00  -6.7429099537494807e-04 3.0168626091376023e-03 0.0000000000000000e+00  -6.6901538806745406e-04 3.0558125993811291e-03 0.0000000000000000e+00  -6.6417230095221289e-04 3.0950360914940907e-03 0.0000000000000000e+00  -6.5972482119434819e-04 3.1346324455965484e-03 0.0000000000000000e+00  -6.5570599373386323e-04 3.1743761262234237e-03 0.0000000000000000e+00  -6.5210949787947094e-04 3.2143678004288800e-03 0.0000000000000000e+00  -6.4898427535502255e-04 3.2546537010534190e-03 0.0000000000000000e+00  -6.4631745237263695e-04 3.2950982629071459e-03 0.0000000000000000e+00  -6.4412667256613014e-04 3.3357665521598474e-03 0.0000000000000000e+00  -6.4236303243277702e-04 3.3766249709922132e-03 0.0000000000000000e+00  -6.4123950063552256e-04 3.4176383378747713e-03 0.0000000000000000e+00  -6.4041992572959350e-04 3.4587529024158441e-03 0.0000000000000000e+00  -6.2222788543346075e-04 3.5000000004217070e-03 0.0000000000000000e+00  -6.0444189103541499e-04 3.5000000004217070e-03 0.0000000000000000e+00  -5.8685508151558449e-04 3.5000000004217070e-03 0.0000000000000000e+00  -5.6939289814237747e-04 3.5000000004217070e-03 0.0000000000000000e+00  -5.5200168487975359e-04 3.5000000004217070e-03 0.0000000000000000e+00  -5.3480979520551441e-04 3.5000000004217070e-03 0.0000000000000000e+00  -5.1762949780486225e-04 3.5000000004217070e-03 0.0000000000000000e+00  -5.0048893446754175e-04 3.5000000004217070e-03 0.0000000000000000e+00  -4.8335238981937225e-04 3.5000000004217070e-03 0.0000000000000000e+00  -4.6634224498154586e-04 3.5000000004217070e-03 0.0000000000000000e+00  -4.4928280151098585e-04 3.5000000004217070e-03 0.0000000000000000e+00  -4.3222637890385086e-04 3.5000000004217070e-03 0.0000000000000000e+00  -4.1516517026227547e-04 3.5000000004217070e-03 0.0000000000000000e+00  -3.9810335228765599e-04 3.5000000004217070e-03 0.0000000000000000e+00  -3.8103205778425498e-04 3.5000000004217070e-03 0.0000000000000000e+00  -3.6390881517111542e-04 3.5000000004217070e-03 0.0000000000000000e+00  -3.4676436523142171e-04 3.5000000004217070e-03 0.0000000000000000e+00  -3.2960510090719760e-04 3.5000000004217070e-03 0.0000000000000000e+00  -3.1242869617726147e-04 3.5000000004217070e-03 0.0000000000000000e+00  -2.9523692457377587e-04 3.5000000004217070e-03 0.0000000000000000e+00  -2.7803128551106513e-04 3.5000000004217070e-03 0.0000000000000000e+00  -2.6081755329021111e-04 3.5000000004217070e-03 0.0000000000000000e+00  -2.4360488234823367e-04 3.5000000004217070e-03 0.0000000000000000e+00  -2.2641497537377622e-04 3.5000000004217070e-03 0.0000000000000000e+00  -2.0922515405164398e-04 3.5000000004217070e-03 0.0000000000000000e+00  -1.9207615846246958e-04 3.5000000004217070e-03 0.0000000000000000e+00  -1.7498919784022143e-04 3.5000000004217070e-03 0.0000000000000000e+00  -1.5794270476774831e-04 3.5000000004217070e-03 0.0000000000000000e+00  -1.4102309449714383e-04 3.5000000004217070e-03 0.0000000000000000e+00  -1.2419360952032663e-04 3.5000000004217070e-03 0.0000000000000000e+00  -1.0746673658263919e-04 3.5000000004217070e-03 0.0000000000000000e+00  -9.0899894191922775e-05 3.5000000004217070e-03 0.0000000000000000e+00  -7.4477305623962524e-05 3.5000000004217070e-03 0.0000000000000000e+00  -5.8176512486829449e-05 3.5000000004217070e-03 0.0000000000000000e+00  -4.2177812870120058e-05 3.5000000004217070e-03 0.0000000000000000e+00  -2.6349384709826652e-05 3.5000000004217070e-03 0.0000000000000000e+00  -1.0763395552976050e-05 3.5000000004217070e-03 0.0000000000000000e+00  4.5542027359215666e-06 3.5000000004217070e-03 0.0000000000000000e+00  1.9657243005199813e-05 3.5000000004217070e-03 0.0000000000000000e+00  3.4395159200719026e-05 3.5000000004217070e-03 0.0000000000000000e+00  4.8791457308620450e-05 3.5000000004217070e-03 0.0000000000000000e+00  6.2817220738743017e-05 3.5000000004217070e-03 0.0000000000000000e+00  7.6532475169849165e-05 3.5000000004217070e-03 0.0000000000000000e+00  8.9926354139388868e-05 3.5000000004217070e-03 0.0000000000000000e+00  1.0282007995678048e-04 3.5000000004217070e-03 0.0000000000000000e+00  1.1540132882567338e-04 3.5000000004217070e-03 0.0000000000000000e+00  1.2757521302780283e-04 3.5000000004217070e-03 0.0000000000000000e+00  1.3916520005660246e-04 3.5000000004217070e-03 0.0000000000000000e+00  1.5039343773818375e-04 3.5000000004217070e-03 0.0000000000000000e+00  1.6124895239373461e-04 3.5000000004217070e-03 0.0000000000000000e+00  1.7162050072858797e-04 3.5000000004217070e-03 0.0000000000000000e+00  1.8145950029521197e-04 3.5000000004217070e-03 0.0000000000000000e+00  1.9084290195423140e-04 3.5000000004217070e-03 0.0000000000000000e+00  1.9982902677386294e-04 3.5000000004217070e-03 0.0000000000000000e+00  2.0829152798090836e-04 3.5000000004217070e-03 0.0000000000000000e+00  2.1627775215706703e-04 3.5000000004217070e-03 0.0000000000000000e+00  2.2384270403903576e-04 3.5000000004217070e-03 0.0000000000000000e+00  2.3099811972742955e-04 3.5000000004217070e-03 0.0000000000000000e+00  2.3757316709832919e-04 3.5000000004217070e-03 0.0000000000000000e+00  2.4380318372965726e-04 3.5000000004217070e-03 0.0000000000000000e+00  2.4957164073917106e-04 3.5000000004217070e-03 0.0000000000000000e+00  2.5492065971461161e-04 3.5000000004217070e-03 0.0000000000000000e+00  2.5981209745894049e-04 3.5000000004217070e-03 0.0000000000000000e+00  2.6438971949782863e-04 3.5000000004217070e-03 0.0000000000000000e+00  2.6860853889466168e-04 3.5000000004217070e-03 0.0000000000000000e+00  