<?xml version="1.0"?>
<VTKFile type="UnstructuredGrid"  version="0.1"  >
<UnstructuredGrid>
<Piece  NumberOfPoints="15540" NumberOfCells="30546">
<Points>
<DataArray  type="Float64"  NumberOfComponents="3"  format="ascii">0 0 0  -0.5 -0.5 0  0.5 -0.5 0  0.5 0 0  0.5 0.5 0  -0.5 0.5 0  -0.5 0.0001 0  -0.5 -0.0001 0  0.5 0.1 0  0.5 -0.1 0  -0.5 -0.1 0  -0.5 0.1 0  -0.4900000000000277 -0.5 0  -0.4800000000000555 -0.5 0  -0.4700000000000832 -0.5 0  -0.4600000000001109 -0.5 0  -0.4500000000001387 -0.5 0  -0.4400000000001664 -0.5 0  -0.4300000000001942 -0.5 0  -0.4200000000002219 -0.5 0  -0.4100000000002497 -0.5 0  -0.4000000000002774 -0.5 0  -0.3900000000003052 -0.5 0  -0.3800000000003328 -0.5 0  -0.3700000000003606 -0.5 0  -0.3600000000003883 -0.5 0  -0.3500000000004161 -0.5 0  -0.3400000000004438 -0.5 0  -0.3300000000004716 -0.5 0  -0.3200000000004993 -0.5 0  -0.3100000000005271 -0.5 0  -0.3000000000005548 -0.5 0  -0.2900000000005825 -0.5 0  -0.2800000000006103 -0.5 0  -0.2700000000006381 -0.5 0  -0.2600000000006658 -0.5 0  -0.2500000000006935 -0.5 0  -0.2400000000007212 -0.5 0  -0.230000000000749 -0.5 0  -0.2200000000007767 -0.5 0  -0.2100000000008044 -0.5 0  -0.2000000000008322 -0.5 0  -0.19000000000086 -0.5 0  -0.1800000000008877 -0.5 0  -0.1700000000009154 -0.5 0  -0.1600000000009431 -0.5 0  -0.1500000000009709 -0.5 0  -0.1400000000009986 -0.5 0  -0.1300000000010264 -0.5 0  -0.1200000000010541 -0.5 0  -0.1100000000010818 -0.5 0  -0.1000000000011096 -0.5 0  -0.09000000000113734 -0.5 0  -0.08000000000116503 -0.5 0  -0.07000000000119283 -0.5 0  -0.06000000000122058 -0.5 0  -0.05000000000124827 -0.5 0  -0.04000000000127607 -0.5 0  -0.03000000000130376 -0.5 0  -0.02000000000133151 -0.5 0  -0.01000000000135925 -0.5 0  -1.376121439022882e-12 -0.5 0  0.009999999998640763 -0.5 0  0.01999999999866864 -0.5 0  0.02999999999869629 -0.5 0  0.03999999999872406 -0.5 0  0.04999999999875182 -0.5 0  0.05999999999877947 -0.5 0  0.06999999999880724 -0.5 0  0.079999999998835 -0.5 0  0.08999999999886266 -0.5 0  0.09999999999889042 -0.5 0  0.1099999999989182 -0.5 0  0.1199999999989459 -0.5 0  0.1299999999989737 -0.5 0  0.1399999999990014 -0.5 0  0.1499999999990291 -0.5 0  0.1599999999990568 -0.5 0  0.1699999999990847 -0.5 0  0.1799999999991124 -0.5 0  0.1899999999991401 -0.5 0  0.1999999999991678 -0.5 0  0.2099999999991955 -0.5 0  0.2199999999992234 -0.5 0  0.2299999999992511 -0.5 0  0.2399999999992788 -0.5 0  0.2499999999993066 -0.5 0  0.2599999999993342 -0.5 0  0.269999999999362 -0.5 0  0.2799999999993897 -0.5 0  0.2899999999994175 -0.5 0  0.2999999999994452 -0.5 0  0.3099999999994729 -0.5 0  0.3199999999995007 -0.5 0  0.3299999999995284 -0.5 0  0.3399999999995562 -0.5 0  0.3499999999995839 -0.5 0  0.3599999999996116 -0.5 0  0.3699999999996393 -0.5 0  0.379999999999667 -0.5 0  0.3899999999996949 -0.5 0  0.3999999999997226 -0.5 0  0.4099999999997503 -0.5 0  0.419999999999778 -0.5 0  0.4299999999998058 -0.5 0  0.4399999999998336 -0.5 0  0.4499999999998613 -0.5 0  0.4599999999998891 -0.5 0  0.4699999999999167 -0.5 0  0.4799999999999445 -0.5 0  0.4899999999999722 -0.5 0  0.5 -0.4902110204681464 0  0.5 -0.4804459958734807 0  0.5 -0.4707048677450883 0  0.5 -0.4609875815766065 0  0.5 -0.4512940759251849 0  0.5 -0.4416242912883993 0  0.5 -0.4319781678689807 0  0.5 -0.4223556545383647 0  0.5 -0.4127566896324213 0  0.5 -0.4031812128200121 0  0.5 -0.3936291733057916 0  0.5 -0.3841005081172659 0  0.5 -0.3745951585781932 0  0.5 -0.3651130778999337 0  0.5 -0.3556541993788045 0  0.5 -0.3462184677228392 0  0.5 -0.3368058273705318 0  0.5 -0.3274162224888609 0  0.5 -0.3180495969712945 0  0.5 -0.3087058944357755 0  0.5 -0.299385058222682 0  0.5 -0.2900870313927414 0  0.5 -0.2808117567250807 0  0.5 -0.2715591844628491 0  0.5 -0.2623292564012653 0  0.5 -0.253121909553727 0  0.5 -0.2439371050851549 0  0.5 -0.2347747685524501 0  0.5 -0.2256348634421331 0  0.5 -0.2165173209784076 0  0.5 -0.207422087829958 0  0.5 -0.1983491207029381 0  0.5 -0.1892983550950482 0  0.5 -0.1802697378305253 0  0.5 -0.1712632154965152 0  0.5 -0.1622787344187354 0  0.5 -0.1533162406595534 0  0.5 -0.1443756800160514 0  0.5 -0.1354569980180493 0  0.5 -0.1265601399261414 0  0.5 -0.1176850622761093 0  0.5 -0.1088317009011999 0  0.5 -0.09166666666668973 0  0.5 -0.08333333333337943 0  0.5 -0.07500000000006915 0  0.5 -0.06666666666675886 0  0.5 -0.05833333333344858 0  0.5 -0.05000000000013693 0  0.5 -0.04166666666678191 0  0.5 -0.03333333333342643 0  0.5 -0.02500000000006916 0  0.5 -0.01666666666671188 0  0.5 -0.00833333333335548 0  0.5 0.008333333333318314 0  0.5 0.01666666666663358 0  0.5 0.02499999999994162 0  0.5 0.03333333333325101 0  0.5 0.04166666666655769 0  0.5 0.04999999999986843 0  0.5 0.05833333333322258 0  0.5 0.06666666666657715 0  0.5 0.07499999999993352 0  0.5 0.08333333333328992 0  0.5 0.09166666666664541 0  0.5 0.1088317009011616 0  0.5 0.1176850622760307 0  0.5 0.1265601399260203 0  0.5 0.1354569980178909 0  0.5 0.1443756800158549 0  0.5 0.153316240659315 0  0.5 0.1622787344184454 0  0.5 0.1712632154961752 0  0.5 0.1802697378301332 0  0.5 0.1892983550946039 0  0.5 0.1983491207024433 0  0.5 0.2074220878294123 0  0.5 0.216517320977811 0  0.5 0.2256348634414833 0  0.5 0.2347747685517479 0  0.5 0.2439371050844009 0  0.5 0.2531219095529224 0  0.5 0.2623292564004089 0  0.5 0.2715591844619371 0  0.5 0.2808117567241139 0  0.5 0.290087031391723 0  0.5 0.2993850582216101 0  0.5 0.3087058944347426 0  0.5 0.3180495969703129 0  0.5 0.3274162224879299 0  0.5 0.3368058273696494 0  0.5 0.3462184677220051 0  0.5 0.3556541993780186 0  0.5 0.3651130778991989 0  0.5 0.3745951585775107 0  0.5 0.3841005081166359 0  0.5 0.3936291733052134 0  0.5 0.4031812128194852 0  0.5 0.412756689631945 0  0.5 0.4223556545379392 0  0.5 0.431978167868607 0  0.5 0.4416242912880781 0  0.5 0.4512940759249164 0  0.5 0.4609875815763912 0  0.5 0.4707048677449264 0  0.5 0.4804459958733726 0  0.5 0.4902110204680924 0  0.4900000000000277 0.5 0  0.4800000000000555 0.5 0  0.4700000000000832 0.5 0  0.4600000000001109 0.5 0  0.4500000000001387 0.5 0  0.4400000000001664 0.5 0  0.4300000000001942 0.5 0  0.4200000000002219 0.5 0  0.4100000000002497 0.5 0  0.4000000000002774 0.5 0  0.3900000000003052 0.5 0  0.3800000000003328 0.5 0  0.3700000000003606 0.5 0  0.3600000000003883 0.5 0  0.3500000000004161 0.5 0  0.3400000000004438 0.5 0  0.3300000000004716 0.5 0  0.3200000000004993 0.5 0  0.3100000000005271 0.5 0  0.3000000000005548 0.5 0  0.2900000000005825 0.5 0  0.2800000000006103 0.5 0  0.2700000000006381 0.5 0  0.2600000000006658 0.5 0  0.2500000000006935 0.5 0  0.2400000000007212 0.5 0  0.230000000000749 0.5 0  0.2200000000007767 0.5 0  0.2100000000008044 0.5 0  0.2000000000008322 0.5 0  0.19000000000086 0.5 0  0.1800000000008877 0.5 0  0.1700000000009154 0.5 0  0.1600000000009431 0.5 0  0.1500000000009709 0.5 0  0.1400000000009986 0.5 0  0.1300000000010264 0.5 0  0.1200000000010541 0.5 0  0.1100000000010818 0.5 0  0.1000000000011096 0.5 0  0.09000000000113734 0.5 0  0.08000000000116503 0.5 0  0.07000000000119283 0.5 0  0.06000000000122058 0.5 0  0.05000000000124827 0.5 0  0.04000000000127607 0.5 0  0.03000000000130376 0.5 0  0.02000000000133151 0.5 0  0.01000000000135925 0.5 0  1.376121439022882e-12 0.5 0  -0.009999999998640763 0.5 0  -0.01999999999866864 0.5 0  -0.02999999999869629 0.5 0  -0.03999999999872406 0.5 0  -0.04999999999875182 0.5 0  -0.05999999999877947 0.5 0  -0.06999999999880724 0.5 0  -0.079999999998835 0.5 0  -0.08999999999886266 0.5 0  -0.09999999999889042 0.5 0  -0.1099999999989182 0.5 0  -0.1199999999989459 0.5 0  -0.1299999999989737 0.5 0  -0.1399999999990014 0.5 0  -0.1499999999990291 0.5 0  -0.1599999999990568 0.5 0  -0.1699999999990847 0.5 0  -0.1799999999991124 0.5 0  -0.1899999999991401 0.5 0  -0.1999999999991678 0.5 0  -0.2099999999991955 0.5 0  -0.2199999999992234 0.5 0  -0.2299999999992511 0.5 0  -0.2399999999992788 0.5 0  -0.2499999999993066 0.5 0  -0.2599999999993342 0.5 0  -0.269999999999362 0.5 0  -0.2799999999993897 0.5 0  -0.2899999999994175 0.5 0  -0.2999999999994452 0.5 0  -0.3099999999994729 0.5 0  -0.3199999999995007 0.5 0  -0.3299999999995284 0.5 0  -0.3399999999995562 0.5 0  -0.3499999999995839 0.5 0  -0.3599999999996116 0.5 0  -0.3699999999996393 0.5 0  -0.379999999999667 0.5 0  -0.3899999999996949 0.5 0  -0.3999999999997226 0.5 0  -0.4099999999997503 0.5 0  -0.419999999999778 0.5 0  -0.4299999999998058 0.5 0  -0.4399999999998336 0.5 0  -0.4499999999998613 0.5 0  -0.4599999999998891 0.5 0  -0.4699999999999167 0.5 0  -0.4799999999999445 0.5 0  -0.4899999999999722 0.5 0  -0.5 0.4902110204681464 0  -0.5 0.4804459958734807 0  -0.5 0.4707048677450883 0  -0.5 0.4609875815766065 0  -0.5 0.4512940759251849 0  -0.5 0.4416242912883993 0  -0.5 0.4319781678689807 0  -0.5 0.4223556545383647 0  -0.5 0.4127566896324213 0  -0.5 0.4031812128200121 0  -0.5 0.3936291733057916 0  -0.5 0.3841005081172659 0  -0.5 0.3745951585781932 0  -0.5 0.3651130778999337 0  -0.5 0.3556541993788045 0  -0.5 0.3462184677228392 0  -0.5 0.3368058273705318 0  -0.5 0.3274162224888609 0  -0.5 0.3180495969712945 0  -0.5 0.3087058944357755 0  -0.5 0.299385058222682 0  -0.5 0.2900870313927414 0  -0.5 0.2808117567250807 0  -0.5 0.2715591844628491 0  -0.5 0.2623292564012653 0  -0.5 0.253121909553727 0  -0.5 0.2439371050851549 0  -0.5 0.2347747685524501 0  -0.5 0.2256348634421331 0  -0.5 0.2165173209784076 0  -0.5 0.207422087829958 0  -0.5 0.1983491207029381 0  -0.5 0.1892983550950482 0  -0.5 0.1802697378305253 0  -0.5 0.1712632154965152 0  -0.5 0.1622787344187354 0  -0.5 0.1533162406595534 0  -0.5 0.1443756800160514 0  -0.5 0.1354569980180493 0  -0.5 0.1265601399261414 0  -0.5 0.1176850622761093 0  -0.5 0.1088317009011999 0  -0.5 0.09167500000001694 0  -0.5 0.08335000000003931 0  -0.5 0.07502500000006167 0  -0.5 0.06670000000008947 0  -0.5 0.05837500000011001 0  -0.5 0.0500500000001328 0  -0.5 0.0417250000001127 0  -0.5 0.03340000000008944 0  -0.5 0.02507500000006573 0  -0.5 0.01675000000004653 0  -0.5 0.008425000000027341 
[...]
<PointData  Vectors="f_7"> 
<DataArray  type="Float64"  Name="f_7"  NumberOfComponents="3" format="ascii">-5.6194398844988918e-04 2.0289759460625132e-03 0.0000000000000000e+00  0.0000000000000000e+00 0.0000000000000000e+00 0.0000000000000000e+00  0.0000000000000000e+00 0.0000000000000000e+00 0.0000000000000000e+00  -1.1361483629632367e-03 2.0891706351873871e-03 0.0000000000000000e+00  -7.6626103197836816e-04 4.1999999999969805e-03 0.0000000000000000e+00  3.0199070999764095e-04 4.1999999999969805e-03 0.0000000000000000e+00  -2.3111439138355348e-04 4.4004532702391986e-03 0.0000000000000000e+00  -2.1045465408841245e-04 -1.1508480380779688e-04 0.0000000000000000e+00  -1.1019099663431007e-03 2.4127666505115680e-03 0.0000000000000000e+00  -1.0803950069629032e-03 1.7750602265502681e-03 0.0000000000000000e+00  -1.2649156480288727e-04 -1.1416627221700174e-04 0.0000000000000000e+00  -9.3347318774139991e-05 4.3998899559615336e-03 0.0000000000000000e+00  0.0000000000000000e+00 0.0000000000000000e+00 0.0000000000000000e+00  0.0000000000000000e+00 0.0000000000000000e+00 0.0000000000000000e+00  0.0000000000000000e+00 0.0000000000000000e+00 0.0000000000000000e+00  0.0000000000000000e+00 0.0000000000000000e+00 0.0000000000000000e+00  0.0000000000000000e+00 0.0000000000000000e+00 0.0000000000000000e+00  0.0000000000000000e+00 0.0000000000000000e+00 0.0000000000000000e+00  0.0000000000000000e+00 0.0000000000000000e+00 0.0000000000000000e+00  0.0000000000000000e+00 0.0000000000000000e+00 0.0000000000000000e+00  0.0000000000000000e+00 0.0000000000000000e+00 0.0000000000000000e+00  0.0000000000000000e+00 0.0000000000000000e+00 0.0000000000000000e+00  0.0000000000000000e+00 0.0000000000000000e+00 0.0000000000000000e+00  0.0000000000000000e+00 0.0000000000000000e+00 0.0000000000000000e+00  0.0000000000000000e+00 0.0000000000000000e+00 0.0000000000000000e+00  0.0000000000000000e+00 0.0000000000000000e+00 0.0000000000000000e+00  0.0000000000000000e+00 0.0000000000000000e+00 0.0000000000000000e+00  0.0000000000000000e+00 0.0000000000000000e+00 0.0000000000000000e+00  0.0000000000000000e+00 0.0000000000000000e+00 0.0000000000000000e+00  0.0000000000000000e+00 0.0000000000000000e+00 0.0000000000000000e+00  0.0000000000000000e+00 0.0000000000000000e+00 0.0000000000000000e+00  0.0000000000000000e+00 0.0000000000000000e+00 0.0000000000000000e+00  0.0000000000000000e+00 0.0000000000000000e+00 0.0000000000000000e+00  0.0000000000000000e+00 0.0000000000000000e+00 0.0000000000000000e+00  0.0000000000000000e+00 0.0000000000000000e+00 0.0000000000000000e+00  0.0000000000000000e+00 0.0000000000000000e+00 0.0000000000000000e+00  0.0000000000000000e+00 0.0000000000000000e+00 0.0000000000000000e+00  0.0000000000000000e+00 0.0000000000000000e+00 0.0000000000000000e+00  0.0000000000000000e+00 0.0000000000000000e+00 0.0000000000000000e+00  0.0000000000000000e+00 0.0000000000000000e+00 0.0000000000000000e+00  0.0000000000000000e+00 0.0000000000000000e+00 0.0000000000000000e+00  0.0000000000000000e+00 0.0000000000000000e+00 0.0000000000000000e+00  0.0000000000000000e+00 0.0000000000000000e+00 0.0000000000000000e+00  0.0000000000000000e+00 0.0000000000000000e+00 0.0000000000000000e+00  0.0000000000000000e+00 0.0000000000000000e+00 0.0000000000000000e+00  0.0000000000000000e+00 0.0000000000000000e+00 0.0000000000000000e+00  0.0000000000000000e+00 0.0000000000000000e+00 0.0000000000000000e+00  0.0000000000000000e+00 0.0000000000000000e+00 0.0000000000000000e+00  0.0000000000000000e+00 0.0000000000000000e+00 0.0000000000000000e+00  0.0000000000000000e+00 0.0000000000000000e+00 0.0000000000000000e+00  0.0000000000000000e+00 0.0000000000000000e+00 0.0000000000000000e+00  0.0000000000000000e+00 0.0000000000000000e+00 0.0000000000000000e+00  0.0000000000000000e+00 0.0000000000000000e+00 0.0000000000000000e+00  0.0000000000000000e+00 0.0000000000000000e+00 0.0000000000000000e+00  0.0000000000000000e+00 0.0000000000000000e+00 0.0000000000000000e+00  0.0000000000000000e+00 0.0000000000000000e+00 0.0000000000000000e+00  0.0000000000000000e+00 0.0000000000000000e+00 0.0000000000000000e+00  0.0000000000000000e+00 0.0000000000000000e+00 0.0000000000000000e+00  0.0000000000000000e+00 0.0000000000000000e+00 0.0000000000000000e+00  0.0000000000000000e+00 0.0000000000000000e+00 0.0000000000000000e+00  0.0000000000000000e+00 0.0000000000000000e+00 0.0000000000000000e+00  0.0000000000000000e+00 0.0000000000000000e+00 0.0000000000000000e+00  0.0000000000000000e+00 0.0000000000000000e+00 0.0000000000000000e+00  0.0000000000000000e+00 0.0000000000000000e+00 0.0000000000000000e+00  0.0000000000000000e+00 0.0000000000000000e+00 0.0000000000000000e+00  0.0000000000000000e+00 0.0000000000000000e+00 0.0000000000000000e+00  0.0000000000000000e+00 0.0000000000000000e+00 0.0000000000000000e+00  0.0000000000000000e+00 0.0000000000000000e+00 0.0000000000000000e+00  0.0000000000000000e+00 0.0000000000000000e+00 0.0000000000000000e+00  0.0000000000000000e+00 0.0000000000000000e+00 0.0000000000000000e+00  0.0000000000000000e+00 0.0000000000000000e+00 0.0000000000000000e+00  0.0000000000000000e+00 0.0000000000000000e+00 0.0000000000000000e+00  0.0000000000000000e+00 0.0000000000000000e+00 0.0000000000000000e+00  0.0000000000000000e+00 0.0000000000000000e+00 0.0000000000000000e+00  0.0000000000000000e+00 0.0000000000000000e+00 0.0000000000000000e+00  0.0000000000000000e+00 0.0000000000000000e+00 0.0000000000000000e+00  0.0000000000000000e+00 0.0000000000000000e+00 0.0000000000000000e+00  0.0000000000000000e+00 0.0000000000000000e+00 0.0000000000000000e+00  0.0000000000000000e+00 0.0000000000000000e+00 0.0000000000000000e+00  0.0000000000000000e+00 0.0000000000000000e+00 0.0000000000000000e+00  0.0000000000000000e+00 0.0000000000000000e+00 0.0000000000000000e+00  0.0000000000000000e+00 0.0000000000000000e+00 0.0000000000000000e+00  0.0000000000000000e+00 0.0000000000000000e+00 0.0000000000000000e+00  0.0000000000000000e+00 0.0000000000000000e+00 0.0000000000000000e+00  0.0000000000000000e+00 0.0000000000000000e+00 0.0000000000000000e+00  0.0000000000000000e+00 0.0000000000000000e+00 0.0000000000000000e+00  0.0000000000000000e+00 0.0000000000000000e+00 0.0000000000000000e+00  0.0000000000000000e+00 0.0000000000000000e+00 0.0000000000000000e+00  0.0000000000000000e+00 0.0000000000000000e+00 0.0000000000000000e+00  0.0000000000000000e+00 0.0000000000000000e+00 0.0000000000000000e+00  0.0000000000000000e+00 0.0000000000000000e+00 0.0000000000000000e+00  0.0000000000000000e+00 0.0000000000000000e+00 0.0000000000000000e+00  0.0000000000000000e+00 0.0000000000000000e+00 0.0000000000000000e+00  0.0000000000000000e+00 0.0000000000000000e+00 0.0000000000000000e+00  0.0000000000000000e+00 0.0000000000000000e+00 0.0000000000000000e+00  0.0000000000000000e+00 0.0000000000000000e+00 0.0000000000000000e+00  0.0000000000000000e+00 0.0000000000000000e+00 0.0000000000000000e+00  0.0000000000000000e+00 0.0000000000000000e+00 0.0000000000000000e+00  0.0000000000000000e+00 0.0000000000000000e+00 0.0000000000000000e+00  0.0000000000000000e+00 0.0000000000000000e+00 0.0000000000000000e+00  0.0000000000000000e+00 0.0000000000000000e+00 0.0000000000000000e+00  0.0000000000000000e+00 0.0000000000000000e+00 0.0000000000000000e+00  0.0000000000000000e+00 0.0000000000000000e+00 0.0000000000000000e+00  0.0000000000000000e+00 0.0000000000000000e+00 0.0000000000000000e+00  0.0000000000000000e+00 0.0000000000000000e+00 0.0000000000000000e+00  0.0000000000000000e+00 0.0000000000000000e+00 0.0000000000000000e+00  0.0000000000000000e+00 0.0000000000000000e+00 0.0000000000000000e+00  0.0000000000000000e+00 0.0000000000000000e+00 0.0000000000000000e+00  0.0000000000000000e+00 0.0000000000000000e+00 0.0000000000000000e+00  0.0000000000000000e+00 0.0000000000000000e+00 0.0000000000000000e+00  0.0000000000000000e+00 0.0000000000000000e+00 0.0000000000000000e+00  -1.0503349073976479e-04 1.0960542950400162e-04 0.0000000000000000e+00  -1.7215160292379642e-04 1.8837665691499129e-04 0.0000000000000000e+00  -2.2662887424664219e-04 2.5500244382547588e-04 0.0000000000000000e+00  -2.7415562516059559e-04 3.1457895072419575e-04 0.0000000000000000e+00  -3.1659279851676018e-04 3.6941572594228719e-04 0.0000000000000000e+00  -3.5539871202692894e-04 4.2106767374309648e-04 0.0000000000000000e+00  -3.9171389105736984e-04 4.7030987671942793e-04 0.0000000000000000e+00  -4.2509831734826464e-04 5.1783010627600497e-04 0.0000000000000000e+00  -4.5645947239121001e-04 5.6396545734760026e-04 0.0000000000000000e+00  -4.8648676145406116e-04 6.0876053090426951e-04 0.0000000000000000e+00  -5.1491562720644608e-04 6.5273925799496908e-04 0.0000000000000000e+00  -5.4220121812932208e-04 6.9563265787918696e-04 0.0000000000000000e+00  -5.6821121904575592e-04 7.3802190387338852e-04 0.0000000000000000e+00  -5.9344553660135781e-04 7.7945312799194933e-04 0.0000000000000000e+00  -6.1775173584031971e-04 8.2047957978663357e-04 0.0000000000000000e+00  -6.4149681910366117e-04 8.6081748903037972e-04 0.0000000000000000e+00  -6.6432768674664906e-04 9.0060311827672515e-04 0.0000000000000000e+00  -6.8656878101920518e-04 9.3978596431178760e-04 0.0000000000000000e+00  -7.0835003004449885e-04 9.7864244076004440e-04 0.0000000000000000e+00  -7.2945295654254895e-04 1.0168659323939427e-03 0.0000000000000000e+00  -7.5004912811977469e-04 1.0546655057666514e-03 0.0000000000000000e+00  -7.7015385859925580e-04 1.0920294598816662e-03 0.0000000000000000e+00  -7.8979278783214478e-04 1.1289170893528128e-03 0.0000000000000000e+00  -8.0896206611325374e-04 1.1653735459365819e-03 0.0000000000000000e+00  -8.2767862539212533e-04 1.2013326339097164e-03 0.0000000000000000e+00  -8.4593834392282952e-04 1.2368282988778640e-03 0.0000000000000000e+00  -8.6376760036862047e-04 1.2717966156758067e-03 0.0000000000000000e+00  -8.8126780315398356e-04 1.3064922870475709e-03 0.0000000000000000e+00  -8.9816059977472018e-04 1.3406664903842691e-03 0.0000000000000000e+00  -9.1458379834584446e-04 1.3743871285525372e-03 0.0000000000000000e+00  -9.3055460921909324e-04 1.4077170185977800e-03 0.0000000000000000e+00  -9.4609499645054997e-04 1.4405454667596148e-03 0.0000000000000000e+00  -9.6106812714601586e-04 1.4729492142799352e-03 0.0000000000000000e+00  -9.7559399999515544e-04 1.5048551658566442e-03 0.0000000000000000e+00  -9.8959697075450470e-04 1.5364581158257415e-03 0.0000000000000000e+00  -1.0029691410694931e-03 1.5676184313083545e-03 0.0000000000000000e+00  -1.0158154987739646e-03 1.5983870071981051e-03 0.0000000000000000e+00  -1.0281429484878706e-03 1.6286422153574669e-03 0.0000000000000000e+00  -1.0397833595401312e-03 1.6586401298744923e-03 0.0000000000000000e+00  -1.0509071671492762e-03 1.6882322013680321e-03 0.0000000000000000e+00  -1.0613451569954381e-03 1.7175437046726635e-03 0.0000000000000000e+00  -1.0711860749216026e-03 1.7464005410740900e-03 0.0000000000000000e+00  -1.0883974108166653e-03 1.8018466180300587e-03 0.0000000000000000e+00  -1.0958706836753011e-03 1.8283812011429268e-03 0.0000000000000000e+00  -1.1027145953181976e-03 1.8548863130471507e-03 0.0000000000000000e+00  -1.1089747392114731e-03 1.8811112116252102e-03 0.0000000000000000e+00  -1.1146509738987553e-03 1.9073676049038795e-03 0.0000000000000000e+00  -1.1196116276465371e-03 1.9335500754364479e-03 0.0000000000000000e+00  -1.1240023000489473e-03 1.9594735984943272e-03 0.0000000000000000e+00  -1.1277338912296592e-03 1.9854215776949481e-03 0.0000000000000000e+00  -1.1308339306195683e-03 2.0113749162987775e-03 0.0000000000000000e+00  -1.1331724539990595e-03 2.0373572155016327e-03 0.0000000000000000e+00  -1.1349878797853052e-03 2.0632076692577855e-03 0.0000000000000000e+00  -1.1365733295201628e-03 2.1151963116728873e-03 0.0000000000000000e+00  -1.1363932493444252e-03 2.1412713141435342e-03 0.0000000000000000e+00  -1.1356032444552742e-03 2.1675671752372921e-03 0.0000000000000000e+00  -1.1341731549305274e-03 2.1938609641032223e-03 0.0000000000000000e+00  -1.1321471762237750e-03 2.2204505959113876e-03 0.0000000000000000e+00  -1.1295000873946285e-03 2.2472551856848881e-03 0.0000000000000000e+00  -1.1262141783867632e-03 2.2741218353966365e-03 0.0000000000000000e+00  -1.1224340179840919e-03 2.3013211943711995e-03 0.0000000000000000e+00  -1.1181335169184489e-03 2.3288046673150685e-03 0.0000000000000000e+00  -1.1131607727660820e-03 2.3565526666465184e-03 0.0000000000000000e+00  -1.1077800627046206e-03 2.3844595758729919e-03 0.0000000000000000e+00  -1.0951171940433225e-03 2.4431867336110473e-03 0.0000000000000000e+00  -1.0878199810492330e-03 2.4739970887867131e-03 0.0000000000000000e+00  -1.0800690892899330e-03 2.5054004648309069e-03 0.0000000000000000e+00  -1.0718167824217790e-03 2.5372287106766047e-03 0.0000000000000000e+00  -1.0632834088696533e-03 2.5696330417886546e-03 0.0000000000000000e+00  -1.0542170600138555e-03 2.6024883021138661e-03 0.0000000000000000e+00  -1.0448758412925196e-03 2.6359834557737089e-03 0.0000000000000000e+00  -1.0351810869612382e-03 2.6700607343431906e-03 0.0000000000000000e+00  -1.0252076232811678e-03 2.7047404921208208e-03 0.0000000000000000e+00  -1.0149193524790722e-03 2.7399341846159214e-03 0.0000000000000000e+00  -1.0045352267763078e-03 2.7757640592050922e-03 0.0000000000000000e+00  -9.9391092621237999e-04 2.8121950286536866e-03 0.0000000000000000e+00  -9.8320508996857644e-04 2.8492398926076986e-03 0.0000000000000000e+00  -9.7242192664248009e-04 2.8869149117102142e-03 0.0000000000000000e+00  -9.6156545300366035e-04 2.9252068545937006e-03 0.0000000000000000e+00  -9.5063247683588369e-04 2.9640921562342432e-03 0.0000000000000000e+00  -9.3972561723840891e-04 3.0035232522096912e-03 0.0000000000000000e+00  -9.2893750699958729e-04 3.0435857294422485e-03 0.0000000000000000e+00  -9.1825394988952831e-04 3.0842210821769005e-03 0.0000000000000000e+00  -9.0768621985145290e-04 3.1254519162257693e-03 0.0000000000000000e+00  -8.9728698410624155e-04 3.1672877600296646e-03 0.0000000000000000e+00  -8.8702212702760480e-04 3.2097093297462501e-03 0.0000000000000000e+00  -8.7709594740505116e-04 3.2526301708097954e-03 0.0000000000000000e+00  -8.6734319894058375e-04 3.2961388523994649e-03 0.0000000000000000e+00  -8.5795875768200224e-04 3.3401063171264404e-03 0.0000000000000000e+00  -8.4884601893392767e-04 3.3846442849762466e-03 0.0000000000000000e+00  -8.4009255804581547e-04 3.4296706144384473e-03 0.0000000000000000e+00  -8.3174107939966099e-04 3.4751009429007450e-03 0.0000000000000000e+00  -8.2380620993045199e-04 3.5209797085872219e-03 0.0000000000000000e+00  -8.1625002056373390e-04 3.5673887057314506e-03 0.0000000000000000e+00  -8.0923340662141560e-04 3.6140676124883776e-03 0.0000000000000000e+00  -8.0260468426511869e-04 3.6612486101750179e-03 0.0000000000000000e+00  -7.9651796697192913e-04 3.7087761845783110e-03 0.0000000000000000e+00  -7.9093208542335800e-04 3.7567734764576478e-03 0.0000000000000000e+00  -7.8588456230338445e-04 3.8049560795877639e-03 0.0000000000000000e+00  -7.8136946790238477e-04 3.8534487874180455e-03 0.0000000000000000e+00  -7.7744575668078420e-04 3.9023113523548171e-03 0.0000000000000000e+00  -7.7409341379180421e-04 3.9513731472057582e-03 0.0000000000000000e+00  -7.7133969888544096e-04 4.0007130075561731e-03 0.0000000000000000e+00  -7.6912176704133442e-04 4.0502861418185154e-03 0.0000000000000000e+00  -7.6771058087536333e-04 4.1000510761336380e-03 0.0000000000000000e+00  -7.6667741660491116e-04 4.1499425930126158e-03 0.0000000000000000e+00  -7.4459708030514963e-04 4.1999999999969805e-03 0.0000000000000000e+00  -7.2302243462875652e-04 4.1999999999969805e-03 0.0000000000000000e+00  -7.0170485764756358e-04 4.1999999999969805e-03 0.0000000000000000e+00  -6.8055040646572754e-04 4.1999999999969805e-03 0.0000000000000000e+00  -6.5949123945856496e-04 4.1999999999969805e-03 0.0000000000000000e+00  -6.3869507615864601e-04 4.1999999999969805e-03 0.0000000000000000e+00  -6.1792516174309826e-04 4.1999999999969805e-03 0.0000000000000000e+00  -5.9722013825310230e-04 4.1999999999969805e-03 0.0000000000000000e+00  -5.7653693076198289e-04 4.1999999999969805e-03 0.0000000000000000e+00  -5.5603283964930140e-04 4.1999999999969805e-03 0.0000000000000000e+00  -5.3547935892031898e-04 4.1999999999969805e-03 0.0000000000000000e+00  -5.1495144943500466e-04 4.1999999999969805e-03 0.0000000000000000e+00  -4.9443803344111819e-04 4.1999999999969805e-03 0.0000000000000000e+00  -4.7394924841408058e-04 4.1999999999969805e-03 0.0000000000000000e+00  -4.5347479471146291e-04 4.1999999999969805e-03 0.0000000000000000e+00  -4.3295187107775967e-04 4.1999999999969805e-03 0.0000000000000000e+00  -4.1242467759655200e-04 4.1999999999969805e-03 0.0000000000000000e+00  -3.9190739735249605e-04 4.1999999999969805e-03 0.0000000000000000e+00  -3.7139151434452443e-04 4.1999999999969805e-03 0.0000000000000000e+00  -3.5087699803826257e-04 4.1999999999969805e-03 0.0000000000000000e+00  -3.3037129466894559e-04 4.1999999999969805e-03 0.0000000000000000e+00  -3.0988273964461729e-04 4.1999999999969805e-03 0.0000000000000000e+00  -2.8942130285968334e-04 4.1999999999969805e-03 0.0000000000000000e+00  -2.6901147087653583e-04 4.1999999999969805e-03 0.0000000000000000e+00  -2.4862495054800735e-04 4.1999999999969805e-03 0.0000000000000000e+00  -2.2831656527788155e-04 4.1999999999969805e-03 0.0000000000000000e+00  -2.0811054198766182e-04 4.1999999999969805e-03 0.0000000000000000e+00  -1.8797614856668491e-04 4.1999999999969805e-03 0.0000000000000000e+00  -1.6802254632942098e-04 4.1999999999969805e-03 0.0000000000000000e+00  -1.4820119899027916e-04 4.1999999999969805e-03 0.0000000000000000e+00  -1.2853261929387700e-04 4.1999999999969805e-03 0.0000000000000000e+00  -1.0908294753557834e-04 4.1999999999969805e-03 0.0000000000000000e+00  -8.9827370244061584e-05 4.1999999999969805e-03 0.0000000000000000e+00  -7.0738969909853481e-05 4.1999999999969805e-03 0.0000000000000000e+00  -5.2042538236308619e-05 4.1999999999969805e-03 0.0000000000000000e+00  -3.3569898156497949e-05 4.1999999999969805e-03 0.0000000000000000e+00  -1.5407781857037948e-05 4.1999999999969805e-03 0.0000000000000000e+00  2.4136078204920292e-06 4.1999999999969805e-03 0.0000000000000000e+00  1.9963772571436894e-05 4.1999999999969805e-03 0.0000000000000000e+00  3.7057435611118331e-05 4.1999999999969805e-03 0.0000000000000000e+00  5.3726102756889681e-05 4.1999999999969805e-03 0.0000000000000000e+00  6.9937548720333119e-05 4.1999999999969805e-03 0.0000000000000000e+00  8.5768531543117325e-05 4.1999999999969805e-03 0.0000000000000000e+00  1.0120738578280522e-04 4.1999999999969805e-03 0.0000000000000000e+00  1.1603715543962433e-04 4.1999999999969805e-03 0.0000000000000000e+00  1.3049036825632279e-04 4.1999999999969805e-03 0.0000000000000000e+00  1.4445295193456589e-04 4.1999999999969805e-03 0.0000000000000000e+00  1.5771435890448227e-04 4.1999999999969805e-03 0.0000000000000000e+00  1.7054388262458090e-04 4.1999999999969805e-03 0.0000000000000000e+00  1.8293369813464146e-04 4.1999999999969805e-03 0.0000000000000000e+00  1.9474842237038217e-04 4.1999999999969805e-03 0.0000000000000000e+00  2.0593317138312402e-04 4.1999999999969805e-03 0.0000000000000000e+00  2.1658269475658689e-04 4.1999999999969805e-03 0.0000000000000000e+00  2.2676558898193866e-04 4.1999999999969805e-03 0.0000000000000000e+00  2.3633458145694880e-04 4.1999999999969805e-03 0.0000000000000000e+00  2.4534849527069723e-04 4.1999999999969805e-03 0.0000000000000000e+00  2.5387113947328792e-04 4.1999999999969805e-03 0.0000000000000000e+00  2.6191858502895050e-04 4.1999999999969805e-03 0.0000000000000000e+00  2.6929186497564429e-04 4.1999999999969805e-03 0.0000000000000000e+00  2.7626675085701285e-04 4.1999999999969805e-03 0.0000000000000000e+00  2.8270701725274816e-04 4.1999999999969805e-03 0.0000000000000000e+00  2.8866332222304684e-04 4.1999999999969805e-03 0.0000000000000000e+00  2.9409244561833729e-04 4.1999999999969805e-03 0.0000000000000000e+00  2.9916090166806517e-04 4.1999999999969805e-03 0.0000000000000000e+00  3.0381786135882038e-04 4.1999999999969805e-03 0.0000000000000000e+00  