<?xml version="1.0"?>
<VTKFile type="UnstructuredGrid"  version="0.1"  >
<UnstructuredGrid>
<Piece  NumberOfPoints="15540" NumberOfCells="30546">
<Points>
<DataArray  type="Float64"  NumberOfComponents="3"  format="ascii">0 0 0  -0.5 -0.5 0  0.5 -0.5 0  0.5 0 0  0.5 0.5 0  -0.5 0.5 0  -0.5 0.0001 0  -0.5 -0.0001 0  0.5 0.1 0  0.5 -0.1 0  -0.5 -0.1 0  -0.5 0.1 0  -0.4900000000000277 -0.5 0  -0.4800000000000555 -0.5 0  -0.4700000000000832 -0.5 0  -0.4600000000001109 -0.5 0  -0.4500000000001387 -0.5 0  -0.4400000000001664 -0.5 0  -0.4300000000001942 -0.5 0  -0.4200000000002219 -0.5 0  -0.4100000000002497 -0.5 0  -0.4000000000002774 -0.5 0  -0.3900000000003052 -0.5 0  -0.3800000000003328 -0.5 0  -0.3700000000003606 -0.5 0  -0.3600000000003883 -0.5 0  -0.3500000000004161 -0.5 0  -0.3400000000004438 -0.5 0  -0.3300000000004716 -0.5 0  -0.3200000000004993 -0.5 0  -0.3100000000005271 -0.5 0  -0.3000000000005548 -0.5 0  -0.2900000000005825 -0.5 0  -0.2800000000006103 -0.5 0  -0.2700000000006381 -0.5 0  -0.2600000000006658 -0.5 0  -0.2500000000006935 -0.5 0  -0.2400000000007212 -0.5 0  -0.230000000000749 -0.5 0  -0.2200000000007767 -0.5 0  -0.2100000000008044 -0.5 0  -0.2000000000008322 -0.5 0  -0.19000000000086 -0.5 0  -0.1800000000008877 -0.5 0  -0.1700000000009154 -0.5 0  -0.1600000000009431 -0.5 0  -0.1500000000009709 -0.5 0  -0.1400000000009986 -0.5 0  -0.1300000000010264 -0.5 0  -0.1200000000010541 -0.5 0  -0.1100000000010818 -0.5 0  -0.1000000000011096 -0.5 0  -0.09000000000113734 -0.5 0  -0.08000000000116503 -0.5 0  -0.07000000000119283 -0.5 0  -0.06000000000122058 -0.5 0  -0.05000000000124827 -0.5 0  -0.04000000000127607 -0.5 0  -0.03000000000130376 -0.5 0  -0.02000000000133151 -0.5 0  -0.01000000000135925 -0.5 0  -1.376121439022882e-12 -0.5 0  0.009999999998640763 -0.5 0  0.01999999999866864 -0.5 0  0.02999999999869629 -0.5 0  0.03999999999872406 -0.5 0  0.04999999999875182 -0.5 0  0.05999999999877947 -0.5 0  0.06999999999880724 -0.5 0  0.079999999998835 -0.5 0  0.08999999999886266 -0.5 0  0.09999999999889042 -0.5 0  0.1099999999989182 -0.5 0  0.1199999999989459 -0.5 0  0.1299999999989737 -0.5 0  0.1399999999990014 -0.5 0  0.1499999999990291 -0.5 0  0.1599999999990568 -0.5 0  0.1699999999990847 -0.5 0  0.1799999999991124 -0.5 0  0.1899999999991401 -0.5 0  0.1999999999991678 -0.5 0  0.2099999999991955 -0.5 0  0.2199999999992234 -0.5 0  0.2299999999992511 -0.5 0  0.2399999999992788 -0.5 0  0.2499999999993066 -0.5 0  0.2599999999993342 -0.5 0  0.269999999999362 -0.5 0  0.2799999999993897 -0.5 0  0.2899999999994175 -0.5 0  0.2999999999994452 -0.5 0  0.3099999999994729 -0.5 0  0.3199999999995007 -0.5 0  0.3299999999995284 -0.5 0  0.3399999999995562 -0.5 0  0.3499999999995839 -0.5 0  0.3599999999996116 -0.5 0  0.3699999999996393 -0.5 0  0.379999999999667 -0.5 0  0.3899999999996949 -0.5 0  0.3999999999997226 -0.5 0  0.4099999999997503 -0.5 0  0.419999999999778 -0.5 0  0.4299999999998058 -0.5 0  0.4399999999998336 -0.5 0  0.4499999999998613 -0.5 0  0.4599999999998891 -0.5 0  0.4699999999999167 -0.5 0  0.4799999999999445 -0.5 0  0.4899999999999722 -0.5 0  0.5 -0.4902110204681464 0  0.5 -0.4804459958734807 0  0.5 -0.4707048677450883 0  0.5 -0.4609875815766065 0  0.5 -0.4512940759251849 0  0.5 -0.4416242912883993 0  0.5 -0.4319781678689807 0  0.5 -0.4223556545383647 0  0.5 -0.4127566896324213 0  0.5 -0.4031812128200121 0  0.5 -0.3936291733057916 0  0.5 -0.3841005081172659 0  0.5 -0.3745951585781932 0  0.5 -0.3651130778999337 0  0.5 -0.3556541993788045 0  0.5 -0.3462184677228392 0  0.5 -0.3368058273705318 0  0.5 -0.3274162224888609 0  0.5 -0.3180495969712945 0  0.5 -0.3087058944357755 0  0.5 -0.299385058222682 0  0.5 -0.2900870313927414 0  0.5 -0.2808117567250807 0  0.5 -0.2715591844628491 0  0.5 -0.2623292564012653 0  0.5 -0.253121909553727 0  0.5 -0.2439371050851549 0  0.5 -0.2347747685524501 0  0.5 -0.2256348634421331 0  0.5 -0.2165173209784076 0  0.5 -0.207422087829958 0  0.5 -0.1983491207029381 0  0.5 -0.1892983550950482 0  0.5 -0.1802697378305253 0  0.5 -0.1712632154965152 0  0.5 -0.1622787344187354 0  0.5 -0.1533162406595534 0  0.5 -0.1443756800160514 0  0.5 -0.1354569980180493 0  0.5 -0.1265601399261414 0  0.5 -0.1176850622761093 0  0.5 -0.1088317009011999 0  0.5 -0.09166666666668973 0  0.5 -0.08333333333337943 0  0.5 -0.07500000000006915 0  0.5 -0.06666666666675886 0  0.5 -0.05833333333344858 0  0.5 -0.05000000000013693 0  0.5 -0.04166666666678191 0  0.5 -0.03333333333342643 0  0.5 -0.02500000000006916 0  0.5 -0.01666666666671188 0  0.5 -0.00833333333335548 0  0.5 0.008333333333318314 0  0.5 0.01666666666663358 0  0.5 0.02499999999994162 0  0.5 0.03333333333325101 0  0.5 0.04166666666655769 0  0.5 0.04999999999986843 0  0.5 0.05833333333322258 0  0.5 0.06666666666657715 0  0.5 0.07499999999993352 0  0.5 0.08333333333328992 0  0.5 0.09166666666664541 0  0.5 0.1088317009011616 0  0.5 0.1176850622760307 0  0.5 0.1265601399260203 0  0.5 0.1354569980178909 0  0.5 0.1443756800158549 0  0.5 0.153316240659315 0  0.5 0.1622787344184454 0  0.5 0.1712632154961752 0  0.5 0.1802697378301332 0  0.5 0.1892983550946039 0  0.5 0.1983491207024433 0  0.5 0.2074220878294123 0  0.5 0.216517320977811 0  0.5 0.2256348634414833 0  0.5 0.2347747685517479 0  0.5 0.2439371050844009 0  0.5 0.2531219095529224 0  0.5 0.2623292564004089 0  0.5 0.2715591844619371 0  0.5 0.2808117567241139 0  0.5 0.290087031391723 0  0.5 0.2993850582216101 0  0.5 0.3087058944347426 0  0.5 0.3180495969703129 0  0.5 0.3274162224879299 0  0.5 0.3368058273696494 0  0.5 0.3462184677220051 0  0.5 0.3556541993780186 0  0.5 0.3651130778991989 0  0.5 0.3745951585775107 0  0.5 0.3841005081166359 0  0.5 0.3936291733052134 0  0.5 0.4031812128194852 0  0.5 0.412756689631945 0  0.5 0.4223556545379392 0  0.5 0.431978167868607 0  0.5 0.4416242912880781 0  0.5 0.4512940759249164 0  0.5 0.4609875815763912 0  0.5 0.4707048677449264 0  0.5 0.4804459958733726 0  0.5 0.4902110204680924 0  0.4900000000000277 0.5 0  0.4800000000000555 0.5 0  0.4700000000000832 0.5 0  0.4600000000001109 0.5 0  0.4500000000001387 0.5 0  0.4400000000001664 0.5 0  0.4300000000001942 0.5 0  0.4200000000002219 0.5 0  0.4100000000002497 0.5 0  0.4000000000002774 0.5 0  0.3900000000003052 0.5 0  0.3800000000003328 0.5 0  0.3700000000003606 0.5 0  0.3600000000003883 0.5 0  0.3500000000004161 0.5 0  0.3400000000004438 0.5 0  0.3300000000004716 0.5 0  0.3200000000004993 0.5 0  0.3100000000005271 0.5 0  0.3000000000005548 0.5 0  0.2900000000005825 0.5 0  0.2800000000006103 0.5 0  0.2700000000006381 0.5 0  0.2600000000006658 0.5 0  0.2500000000006935 0.5 0  0.2400000000007212 0.5 0  0.230000000000749 0.5 0  0.2200000000007767 0.5 0  0.2100000000008044 0.5 0  0.2000000000008322 0.5 0  0.19000000000086 0.5 0  0.1800000000008877 0.5 0  0.1700000000009154 0.5 0  0.1600000000009431 0.5 0  0.1500000000009709 0.5 0  0.1400000000009986 0.5 0  0.1300000000010264 0.5 0  0.1200000000010541 0.5 0  0.1100000000010818 0.5 0  0.1000000000011096 0.5 0  0.09000000000113734 0.5 0  0.08000000000116503 0.5 0  0.07000000000119283 0.5 0  0.06000000000122058 0.5 0  0.05000000000124827 0.5 0  0.04000000000127607 0.5 0  0.03000000000130376 0.5 0  0.02000000000133151 0.5 0  0.01000000000135925 0.5 0  1.376121439022882e-12 0.5 0  -0.009999999998640763 0.5 0  -0.01999999999866864 0.5 0  -0.02999999999869629 0.5 0  -0.03999999999872406 0.5 0  -0.04999999999875182 0.5 0  -0.05999999999877947 0.5 0  -0.06999999999880724 0.5 0  -0.079999999998835 0.5 0  -0.08999999999886266 0.5 0  -0.09999999999889042 0.5 0  -0.1099999999989182 0.5 0  -0.1199999999989459 0.5 0  -0.1299999999989737 0.5 0  -0.1399999999990014 0.5 0  -0.1499999999990291 0.5 0  -0.1599999999990568 0.5 0  -0.1699999999990847 0.5 0  -0.1799999999991124 0.5 0  -0.1899999999991401 0.5 0  -0.1999999999991678 0.5 0  -0.2099999999991955 0.5 0  -0.2199999999992234 0.5 0  -0.2299999999992511 0.5 0  -0.2399999999992788 0.5 0  -0.2499999999993066 0.5 0  -0.2599999999993342 0.5 0  -0.269999999999362 0.5 0  -0.2799999999993897 0.5 0  -0.2899999999994175 0.5 0  -0.2999999999994452 0.5 0  -0.3099999999994729 0.5 0  -0.3199999999995007 0.5 0  -0.3299999999995284 0.5 0  -0.3399999999995562 0.5 0  -0.3499999999995839 0.5 0  -0.3599999999996116 0.5 0  -0.3699999999996393 0.5 0  -0.379999999999667 0.5 0  -0.3899999999996949 0.5 0  -0.3999999999997226 0.5 0  -0.4099999999997503 0.5 0  -0.419999999999778 0.5 0  -0.4299999999998058 0.5 0  -0.4399999999998336 0.5 0  -0.4499999999998613 0.5 0  -0.4599999999998891 0.5 0  -0.4699999999999167 0.5 0  -0.4799999999999445 0.5 0  -0.4899999999999722 0.5 0  -0.5 0.4902110204681464 0  -0.5 0.4804459958734807 0  -0.5 0.4707048677450883 0  -0.5 0.4609875815766065 0  -0.5 0.4512940759251849 0  -0.5 0.4416242912883993 0  -0.5 0.4319781678689807 0  -0.5 0.4223556545383647 0  -0.5 0.4127566896324213 0  -0.5 0.4031812128200121 0  -0.5 0.3936291733057916 0  -0.5 0.3841005081172659 0  -0.5 0.3745951585781932 0  -0.5 0.3651130778999337 0  -0.5 0.3556541993788045 0  -0.5 0.3462184677228392 0  -0.5 0.3368058273705318 0  -0.5 0.3274162224888609 0  -0.5 0.3180495969712945 0  -0.5 0.3087058944357755 0  -0.5 0.299385058222682 0  -0.5 0.2900870313927414 0  -0.5 0.2808117567250807 0  -0.5 0.2715591844628491 0  -0.5 0.2623292564012653 0  -0.5 0.253121909553727 0  -0.5 0.2439371050851549 0  -0.5 0.2347747685524501 0  -0.5 0.2256348634421331 0  -0.5 0.2165173209784076 0  -0.5 0.207422087829958 0  -0.5 0.1983491207029381 0  -0.5 0.1892983550950482 0  -0.5 0.1802697378305253 0  -0.5 0.1712632154965152 0  -0.5 0.1622787344187354 0  -0.5 0.1533162406595534 0  -0.5 0.1443756800160514 0  -0.5 0.1354569980180493 0  -0.5 0.1265601399261414 0  -0.5 0.1176850622761093 0  -0.5 0.1088317009011999 0  -0.5 0.09167500000001694 0  -0.5 0.08335000000003931 0  -0.5 0.07502500000006167 0  -0.5 0.06670000000008947 0  -0.5 0.05837500000011001 0  -0.5 0.0500500000001328 0  -0.5 0.0417250000001127 0  -0.5 0.03340000000008944 0  -0.5 0.02507500000006573 0  -0.5 0.01675000000004653 0  -0.5 0.008425000000027341 
[...]
<PointData  Vectors="f_7"> 
<DataArray  type="Float64"  Name="f_7"  NumberOfComponents="3" format="ascii">-1.4745031038756249e-06 1.8650745173673521e-04 0.0000000000000000e+00  0.0000000000000000e+00 0.0000000000000000e+00 0.0000000000000000e+00  0.0000000000000000e+00 0.0000000000000000e+00 0.0000000000000000e+00  -7.7764855524294605e-05 1.0924219286214655e-04 0.0000000000000000e+00  4.8967070823060079e-04 5.6000002402447771e-03 0.0000000000000000e+00  5.0762752175928158e-04 5.6000002402447771e-03 0.0000000000000000e+00  4.9876847251478123e-04 5.5988329841107414e-03 0.0000000000000000e+00  -6.4290645431764480e-07 -4.6467550499137191e-07 0.0000000000000000e+00  4.8849507566646184e-04 5.5817734900632191e-03 0.0000000000000000e+00  -8.4296015045999129e-06 1.4351937731248790e-05 0.0000000000000000e+00  -1.6280792054097960e-07 -4.5817217591498879e-07 0.0000000000000000e+00  5.0116661715759894e-04 5.5989164991623276e-03 0.0000000000000000e+00  0.0000000000000000e+00 0.0000000000000000e+00 0.0000000000000000e+00  0.0000000000000000e+00 0.0000000000000000e+00 0.0000000000000000e+00  0.0000000000000000e+00 0.0000000000000000e+00 0.0000000000000000e+00  0.0000000000000000e+00 0.0000000000000000e+00 0.0000000000000000e+00  0.0000000000000000e+00 0.0000000000000000e+00 0.0000000000000000e+00  0.0000000000000000e+00 0.0000000000000000e+00 0.0000000000000000e+00  0.0000000000000000e+00 0.0000000000000000e+00 0.0000000000000000e+00  0.0000000000000000e+00 0.0000000000000000e+00 0.0000000000000000e+00  0.0000000000000000e+00 0.0000000000000000e+00 0.0000000000000000e+00  0.0000000000000000e+00 0.0000000000000000e+00 0.0000000000000000e+00  0.0000000000000000e+00 0.0000000000000000e+00 0.0000000000000000e+00  0.0000000000000000e+00 0.0000000000000000e+00 0.0000000000000000e+00  0.0000000000000000e+00 0.0000000000000000e+00 0.0000000000000000e+00  0.0000000000000000e+00 0.0000000000000000e+00 0.0000000000000000e+00  0.0000000000000000e+00 0.0000000000000000e+00 0.0000000000000000e+00  0.0000000000000000e+00 0.0000000000000000e+00 0.0000000000000000e+00  0.0000000000000000e+00 0.0000000000000000e+00 0.0000000000000000e+00  0.0000000000000000e+00 0.0000000000000000e+00 0.0000000000000000e+00  0.0000000000000000e+00 0.0000000000000000e+00 0.0000000000000000e+00  0.0000000000000000e+00 0.0000000000000000e+00 0.0000000000000000e+00  0.0000000000000000e+00 0.0000000000000000e+00 0.0000000000000000e+00  0.0000000000000000e+00 0.0000000000000000e+00 0.0000000000000000e+00  0.0000000000000000e+00 0.0000000000000000e+00 0.0000000000000000e+00  0.0000000000000000e+00 0.0000000000000000e+00 0.0000000000000000e+00  0.0000000000000000e+00 0.0000000000000000e+00 0.0000000000000000e+00  0.0000000000000000e+00 0.0000000000000000e+00 0.0000000000000000e+00  0.0000000000000000e+00 0.0000000000000000e+00 0.0000000000000000e+00  0.0000000000000000e+00 0.0000000000000000e+00 0.0000000000000000e+00  0.0000000000000000e+00 0.0000000000000000e+00 0.0000000000000000e+00  0.0000000000000000e+00 0.0000000000000000e+00 0.0000000000000000e+00  0.0000000000000000e+00 0.0000000000000000e+00 0.0000000000000000e+00  0.0000000000000000e+00 0.0000000000000000e+00 0.0000000000000000e+00  0.0000000000000000e+00 0.0000000000000000e+00 0.0000000000000000e+00  0.0000000000000000e+00 0.0000000000000000e+00 0.0000000000000000e+00  0.0000000000000000e+00 0.0000000000000000e+00 0.0000000000000000e+00  0.0000000000000000e+00 0.0000000000000000e+00 0.0000000000000000e+00  0.0000000000000000e+00 0.0000000000000000e+00 0.0000000000000000e+00  0.0000000000000000e+00 0.0000000000000000e+00 0.0000000000000000e+00  0.0000000000000000e+00 0.0000000000000000e+00 0.0000000000000000e+00  0.0000000000000000e+00 0.0000000000000000e+00 0.0000000000000000e+00  0.0000000000000000e+00 0.0000000000000000e+00 0.0000000000000000e+00  0.0000000000000000e+00 0.0000000000000000e+00 0.0000000000000000e+00  0.0000000000000000e+00 0.0000000000000000e+00 0.0000000000000000e+00  0.0000000000000000e+00 0.0000000000000000e+00 0.0000000000000000e+00  0.0000000000000000e+00 0.0000000000000000e+00 0.0000000000000000e+00  0.0000000000000000e+00 0.0000000000000000e+00 0.0000000000000000e+00  0.0000000000000000e+00 0.0000000000000000e+00 0.0000000000000000e+00  0.0000000000000000e+00 0.0000000000000000e+00 0.0000000000000000e+00  0.0000000000000000e+00 0.0000000000000000e+00 0.0000000000000000e+00  0.0000000000000000e+00 0.0000000000000000e+00 0.0000000000000000e+00  0.0000000000000000e+00 0.0000000000000000e+00 0.0000000000000000e+00  0.0000000000000000e+00 0.0000000000000000e+00 0.0000000000000000e+00  0.0000000000000000e+00 0.0000000000000000e+00 0.0000000000000000e+00  0.0000000000000000e+00 0.0000000000000000e+00 0.0000000000000000e+00  0.0000000000000000e+00 0.0000000000000000e+00 0.0000000000000000e+00  0.0000000000000000e+00 0.0000000000000000e+00 0.0000000000000000e+00  0.0000000000000000e+00 0.0000000000000000e+00 0.0000000000000000e+00  0.0000000000000000e+00 0.0000000000000000e+00 0.0000000000000000e+00  0.0000000000000000e+00 0.0000000000000000e+00 0.0000000000000000e+00  0.0000000000000000e+00 0.0000000000000000e+00 0.0000000000000000e+00  0.0000000000000000e+00 0.0000000000000000e+00 0.0000000000000000e+00  0.0000000000000000e+00 0.0000000000000000e+00 0.0000000000000000e+00  0.0000000000000000e+00 0.0000000000000000e+00 0.0000000000000000e+00  0.0000000000000000e+00 0.0000000000000000e+00 0.0000000000000000e+00  0.0000000000000000e+00 0.0000000000000000e+00 0.0000000000000000e+00  0.0000000000000000e+00 0.0000000000000000e+00 0.0000000000000000e+00  0.0000000000000000e+00 0.0000000000000000e+00 0.0000000000000000e+00  0.0000000000000000e+00 0.0000000000000000e+00 0.0000000000000000e+00  0.0000000000000000e+00 0.0000000000000000e+00 0.0000000000000000e+00  0.0000000000000000e+00 0.0000000000000000e+00 0.0000000000000000e+00  0.0000000000000000e+00 0.0000000000000000e+00 0.0000000000000000e+00  0.0000000000000000e+00 0.0000000000000000e+00 0.0000000000000000e+00  0.0000000000000000e+00 0.0000000000000000e+00 0.0000000000000000e+00  0.0000000000000000e+00 0.0000000000000000e+00 0.0000000000000000e+00  0.0000000000000000e+00 0.0000000000000000e+00 0.0000000000000000e+00  0.0000000000000000e+00 0.0000000000000000e+00 0.0000000000000000e+00  0.0000000000000000e+00 0.0000000000000000e+00 0.0000000000000000e+00  0.0000000000000000e+00 0.0000000000000000e+00 0.0000000000000000e+00  0.0000000000000000e+00 0.0000000000000000e+00 0.0000000000000000e+00  0.0000000000000000e+00 0.0000000000000000e+00 0.0000000000000000e+00  0.0000000000000000e+00 0.0000000000000000e+00 0.0000000000000000e+00  0.0000000000000000e+00 0.0000000000000000e+00 0.0000000000000000e+00  0.0000000000000000e+00 0.0000000000000000e+00 0.0000000000000000e+00  0.0000000000000000e+00 0.0000000000000000e+00 0.0000000000000000e+00  0.0000000000000000e+00 0.0000000000000000e+00 0.0000000000000000e+00  0.0000000000000000e+00 0.0000000000000000e+00 0.0000000000000000e+00  0.0000000000000000e+00 0.0000000000000000e+00 0.0000000000000000e+00  0.0000000000000000e+00 0.0000000000000000e+00 0.0000000000000000e+00  0.0000000000000000e+00 0.0000000000000000e+00 0.0000000000000000e+00  0.0000000000000000e+00 0.0000000000000000e+00 0.0000000000000000e+00  0.0000000000000000e+00 0.0000000000000000e+00 0.0000000000000000e+00  0.0000000000000000e+00 0.0000000000000000e+00 0.0000000000000000e+00  0.0000000000000000e+00 0.0000000000000000e+00 0.0000000000000000e+00  0.0000000000000000e+00 0.0000000000000000e+00 0.0000000000000000e+00  0.0000000000000000e+00 0.0000000000000000e+00 0.0000000000000000e+00  0.0000000000000000e+00 0.0000000000000000e+00 0.0000000000000000e+00  0.0000000000000000e+00 0.0000000000000000e+00 0.0000000000000000e+00  0.0000000000000000e+00 0.0000000000000000e+00 0.0000000000000000e+00  0.0000000000000000e+00 0.0000000000000000e+00 0.0000000000000000e+00  -7.6448398573071921e-07 8.0512432671827078e-07 0.0000000000000000e+00  -1.2340679503448883e-06 1.3804510717278798e-06 0.0000000000000000e+00  -1.6060937568493451e-06 1.8666174449983950e-06 0.0000000000000000e+00  -1.9218726669585507e-06 2.2987020111899983e-06 0.0000000000000000e+00  -2.1996900436518417e-06 2.6966369600363898e-06 0.0000000000000000e+00  -2.4509001607491620e-06 3.0716660100960772e-06 0.0000000000000000e+00  -2.6841376146765304e-06 3.4296400429816429e-06 0.0000000000000000e+00  -2.8975687191733255e-06 3.7752982118258085e-06 0.0000000000000000e+00  -3.0976799985060963e-06 4.1115443767144083e-06 0.0000000000000000e+00  -3.2889235731477660e-06 4.4389038946273998e-06 0.0000000000000000e+00  -3.4704579699493066e-06 4.7612525556233396e-06 0.0000000000000000e+00  -3.6449068656594929e-06 5.0771283531626116e-06 0.0000000000000000e+00  -3.8125321529428659e-06 5.3901028823784920e-06 0.0000000000000000e+00  -3.9756292698237563e-06 5.6978410351870162e-06 0.0000000000000000e+00  -4.1340869448376089e-06 6.0035627342341310e-06 0.0000000000000000e+00  -4.2896484376861355e-06 6.3061708421464602e-06 0.0000000000000000e+00  -4.4412884460959417e-06 6.6062411057430976e-06 0.0000000000000000e+00  -4.5904820930319480e-06 6.9041045368072673e-06 0.0000000000000000e+00  -4.7379191879390201e-06 7.2007703237617009e-06 0.0000000000000000e+00  -4.8832086468055151e-06 7.4953069866828015e-06 0.0000000000000000e+00  -5.0270465304141156e-06 7.7885319103949181e-06 0.0000000000000000e+00  -5.1697023930317310e-06 8.0803706368847382e-06 0.0000000000000000e+00  -5.3115299262387170e-06 8.3709309010294784e-06 0.0000000000000000e+00  -5.4526835062577525e-06 8.6603578893465120e-06 0.0000000000000000e+00  -5.5934168501658851e-06 8.9488252657969905e-06 0.0000000000000000e+00  -5.7339779995902083e-06 9.2365464355548222e-06 0.0000000000000000e+00  -5.8746100150536393e-06 9.5235985222419322e-06 0.0000000000000000e+00  -6.0150775998374699e-06 9.8099232691165605e-06 0.0000000000000000e+00  -6.1560856740021292e-06 1.0096068626109089e-05 0.0000000000000000e+00  -6.2977494439757910e-06 1.0382019638088256e-05 0.0000000000000000e+00  -6.4405183544297310e-06 1.0667744141327207e-05 0.0000000000000000e+00  -6.5843734827163647e-06 1.0953872585928125e-05 0.0000000000000000e+00  -6.7299774459449569e-06 1.1240683703726076e-05 0.0000000000000000e+00  -6.8773839083316787e-06 1.1528959349497619e-05 0.0000000000000000e+00  -7.0267779898552397e-06 1.1818193571177814e-05 0.0000000000000000e+00  -7.1799659168228361e-06 1.2110219029362629e-05 0.0000000000000000e+00  -7.3366476583645232e-06 1.2405491150414476e-05 0.0000000000000000e+00  -7.4973736413977811e-06 1.2706536354000886e-05 0.0000000000000000e+00  -7.6647045885367290e-06 1.3012130508222698e-05 0.0000000000000000e+00  -7.8382469761854832e-06 1.3326454974261149e-05 0.0000000000000000e+00  -8.0226463425439585e-06 1.3651813334402054e-05 0.0000000000000000e+00  -8.2190453870501401e-06 1.3994244917932757e-05 0.0000000000000000e+00  -8.6541149372310047e-06 1.4719847254426505e-05 0.0000000000000000e+00  -8.9036474398558112e-06 1.5126875829138259e-05 0.0000000000000000e+00  -9.1906954958778220e-06 1.5570232355262250e-05 0.0000000000000000e+00  -9.5354159280328746e-06 1.6103617648278397e-05 0.0000000000000000e+00  -9.9329589509794665e-06 1.6705755417797560e-05 0.0000000000000000e+00  -1.0478794516036255e-05 1.7450499221424979e-05 0.0000000000000000e+00  -1.1191997263663873e-05 1.8533737791652815e-05 0.0000000000000000e+00  -1.2283043011708606e-05 2.0041120803484908e-05 0.0000000000000000e+00  -1.3967997548840578e-05 2.2343985874290109e-05 0.0000000000000000e+00  -1.7672191213235959e-05 2.7367338654712120e-05 0.0000000000000000e+00  -2.9490588063423390e-05 4.3055219710711837e-05 0.0000000000000000e+00  -1.3187235619843982e-03 3.2345284258513732e-03 0.0000000000000000e+00  4.2102485051229811e-04 5.4828234587793170e-03 0.0000000000000000e+00  4.7035628336228829e-04 5.5542596354258055e-03 0.0000000000000000e+00  4.8056280718566512e-04 5.5692323617728525e-03 0.0000000000000000e+00  4.8402823383888484e-04 5.5742055289132540e-03 0.0000000000000000e+00  4.8562577074692700e-04 5.5765298892324726e-03 0.0000000000000000e+00  4.8658213336739948e-04 5.5781450331147172e-03 0.0000000000000000e+00  4.8723165037127840e-04 5.5792128408630563e-03 0.0000000000000000e+00  4.8768620405252377e-04 5.5800269358977188e-03 0.0000000000000000e+00  4.8800449563157728e-04 5.5806743919504216e-03 0.0000000000000000e+00  4.8828166567600696e-04 5.5812612932417535e-03 0.0000000000000000e+00  4.8867071426499694e-04 5.5822592385331030e-03 0.0000000000000000e+00  4.8881984986219715e-04 5.5827214487212829e-03 0.0000000000000000e+00  4.8894619421250955e-04 5.5831562720901184e-03 0.0000000000000000e+00  4.8905169881574269e-04 5.5835735793847386e-03 0.0000000000000000e+00  4.8914239596491074e-04 5.5839807644037934e-03 0.0000000000000000e+00  4.8922113419256447e-04 5.5843844208823086e-03 0.0000000000000000e+00  4.8928944256839085e-04 5.5847817411310598e-03 0.0000000000000000e+00  4.8935000897757557e-04 5.5851767834906498e-03 0.0000000000000000e+00  4.8940111764078729e-04 5.5855686743736420e-03 0.0000000000000000e+00  4.8944805847087741e-04 5.5859623352305498e-03 0.0000000000000000e+00  4.8948780255540943e-04 5.5863565896586195e-03 0.0000000000000000e+00  4.8952229019807569e-04 5.5867517333457488e-03 0.0000000000000000e+00  4.8955440113621182e-04 5.5871464150547443e-03 0.0000000000000000e+00  4.8958379716708921e-04 5.5875455784039803e-03 0.0000000000000000e+00  4.8960920474765655e-04 5.5879464883454109e-03 0.0000000000000000e+00  4.8963099678448342e-04 5.5883479871540308e-03 0.0000000000000000e+00  4.8965175827836937e-04 5.5887535684732512e-03 0.0000000000000000e+00  4.8967009312879200e-04 5.5891622564358291e-03 0.0000000000000000e+00  4.8968469800965398e-04 5.5895749431190507e-03 0.0000000000000000e+00  4.8969245223561670e-04 5.5899917624436636e-03 0.0000000000000000e+00  4.8969599072739103e-04 5.5904115643200750e-03 0.0000000000000000e+00  4.8969681803761548e-04 5.5908339538893346e-03 0.0000000000000000e+00  4.8969287365481908e-04 5.5912563446485946e-03 0.0000000000000000e+00  4.8968482516885056e-04 5.5916848317785353e-03 0.0000000000000000e+00  4.8967285069443235e-04 5.5921148472452015e-03 0.0000000000000000e+00  4.8965653582206433e-04 5.5925388643270667e-03 0.0000000000000000e+00  4.8964001790211225e-04 5.5929525454192558e-03 0.0000000000000000e+00  4.8964579566126510e-04 5.5933761067686249e-03 0.0000000000000000e+00  4.8965191625470754e-04 5.5938113528165214e-03 0.0000000000000000e+00  4.8965220278637334e-04 5.5942514961690648e-03 0.0000000000000000e+00  4.8965077881728942e-04 5.5946874480695937e-03 0.0000000000000000e+00  4.8964848536909851e-04 5.5951260096119924e-03 0.0000000000000000e+00  4.8964498670671234e-04 5.5955665464339568e-03 0.0000000000000000e+00  4.8963750766735522e-04 5.5960089148484682e-03 0.0000000000000000e+00  4.8962509017911660e-04 5.5964516505325286e-03 0.0000000000000000e+00  4.8962323603990161e-04 5.5968871091336405e-03 0.0000000000000000e+00  4.8963017765400393e-04 5.5973242987286381e-03 0.0000000000000000e+00  4.8964064134742662e-04 5.5977700144086975e-03 0.0000000000000000e+00  4.8964518004460762e-04 5.5982156100278027e-03 0.0000000000000000e+00  4.8964412809577099e-04 5.5986580438019354e-03 0.0000000000000000e+00  4.8964974178180470e-04 5.5991053656410722e-03 0.0000000000000000e+00  4.8966701937567332e-04 5.5995541834635287e-03 0.0000000000000000e+00  4.8986996638106901e-04 5.6000002402447771e-03 0.0000000000000000e+00  4.9007384326686275e-04 5.6000002402447771e-03 0.0000000000000000e+00  4.9027496822636255e-04 5.6000002402447771e-03 0.0000000000000000e+00  4.9048282030866126e-04 5.6000002402447771e-03 0.0000000000000000e+00  4.9069877458856150e-04 5.6000002402447771e-03 0.0000000000000000e+00  4.9091314096573338e-04 5.6000002402447771e-03 0.0000000000000000e+00  4.9113107072666651e-04 5.6000002402447771e-03 0.0000000000000000e+00  4.9135765579975802e-04 5.6000002402447771e-03 0.0000000000000000e+00  4.9158695255273365e-04 5.6000002402447771e-03 0.0000000000000000e+00  4.9182232896334023e-04 5.6000002402447771e-03 0.0000000000000000e+00  4.9206320179791003e-04 5.6000002402447771e-03 0.0000000000000000e+00  4.9229826888815865e-04 5.6000002402447771e-03 0.0000000000000000e+00  4.9254795479750134e-04 5.6000002402447771e-03 0.0000000000000000e+00  4.9279662093039249e-04 5.6000002402447771e-03 0.0000000000000000e+00  4.9303937271810022e-04 5.6000002402447771e-03 0.0000000000000000e+00  4.9328875008075145e-04 5.6000002402447771e-03 0.0000000000000000e+00  4.9354433467180909e-04 5.6000002402447771e-03 0.0000000000000000e+00  4.9379582053728438e-04 5.6000002402447771e-03 0.0000000000000000e+00  4.9404896809963157e-04 5.6000002402447771e-03 0.0000000000000000e+00  4.9430549241774580e-04 5.6000002402447771e-03 0.0000000000000000e+00  4.9457084844661695e-04 5.6000002402447771e-03 0.0000000000000000e+00  4.9482755442602786e-04 5.6000002402447771e-03 0.0000000000000000e+00  4.9508749924101730e-04 5.6000002402447771e-03 0.0000000000000000e+00  4.9535003085605933e-04 5.6000002402447771e-03 0.0000000000000000e+00  4.9560733102025603e-04 5.6000002402447771e-03 0.0000000000000000e+00  4.9586566069067855e-04 5.6000002402447771e-03 0.0000000000000000e+00  4.9611995955646689e-04 5.6000002402447771e-03 0.0000000000000000e+00  4.9637059928437450e-04 5.6000002402447771e-03 0.0000000000000000e+00  4.9662460264516021e-04 5.6000002402447771e-03 0.0000000000000000e+00  4.9687698442634669e-04 5.6000002402447771e-03 0.0000000000000000e+00  4.9712364318668081e-04 5.6000002402447771e-03 0.0000000000000000e+00  4.9736236924040268e-04 5.6000002402447771e-03 0.0000000000000000e+00  4.9760025391354693e-04 5.6000002402447771e-03 0.0000000000000000e+00  4.9783614200101889e-04 5.6000002402447771e-03 0.0000000000000000e+00  4.9806909752125059e-04 5.6000002402447771e-03 0.0000000000000000e+00  4.9829143028102293e-04 5.6000002402447771e-03 0.0000000000000000e+00  4.9851256472094557e-04 5.6000002402447771e-03 0.0000000000000000e+00  4.9872986755747123e-04 5.6000002402447771e-03 0.0000000000000000e+00  4.9894732774375024e-04 5.6000002402447771e-03 0.0000000000000000e+00  4.9916284246459411e-04 5.6000002402447771e-03 0.0000000000000000e+00  4.9937511807170002e-04 5.6000002402447771e-03 0.0000000000000000e+00  4.9958012742516310e-04 5.6000002402447771e-03 0.0000000000000000e+00  4.9978183478971395e-04 5.6000002402447771e-03 0.0000000000000000e+00  4.9998588660447169e-04 5.6000002402447771e-03 0.0000000000000000e+00  5.0018338136009971e-04 5.6000002402447771e-03 0.0000000000000000e+00  5.0038317955283232e-04 5.6000002402447771e-03 0.0000000000000000e+00  5.0057986917162315e-04 5.6000002402447771e-03 0.0000000000000000e+00  5.0077467187491361e-04 5.6000002402447771e-03 0.0000000000000000e+00  5.0096739538315152e-04 5.6000002402447771e-03 0.0000000000000000e+00  5.0115673683753250e-04 5.6000002402447771e-03 0.0000000000000000e+00  5.0134431839247637e-04 5.6000002402447771e-03 0.0000000000000000e+00  5.0152862661608357e-04 5.6000002402447771e-03 0.0000000000000000e+00  5.0171226352230909e-04 5.6000002402447771e-03 0.0000000000000000e+00  5.0189163287387957e-04 5.6000002402447771e-03 0.0000000000000000e+00  5.0206996759436320e-04 5.6000002402447771e-03 0.0000000000000000e+00  5.0224776426768239e-04 5.6000002402447771e-03 0.0000000000000000e+00  5.0242173738879973e-04 5.6000002402447771e-03 0.0000000000000000e+00  5.0259642617575713e-04 5.6000002402447771e-03 0.0000000000000000e+00  5.0276806169452330e-04 5.6000002402447771e-03 0.0000000000000000e+00  5.0294215393999176e-04 5.6000002402447771e-03 0.0000000000000000e+00  5.0311925747162779e-04 5.6000002402447771e-03 0.0000000000000000e+00  5.0329341984119006e-04 5.6000002402447771e-03 0.0000000000000000e+00  5.0346340154528043e-04 5.6000002402447771e-03 0.0000000000000000e+00  5.0363449587544757e-04 5.6000002402447771e-03 0.0000000000000000e+00  5.0381006592346421e-04 5.6000002402447771e-03 0.0000000000000000e+00  5.0398069768357325e-04 5.6000002402447771e-03 0.0000000000000000e+00  5.0414867000965014e-04 