<?xml version="1.0"?>
<VTKFile type="UnstructuredGrid"  version="0.1"  >
<UnstructuredGrid>
<Piece  NumberOfPoints="15540" NumberOfCells="30546">
<Points>
<DataArray  type="Float64"  NumberOfComponents="3"  format="ascii">0 0 0  -0.5 -0.5 0  0.5 -0.5 0  0.5 0 0  0.5 0.5 0  -0.5 0.5 0  -0.5 0.0001 0  -0.5 -0.0001 0  0.5 0.1 0  0.5 -0.1 0  -0.5 -0.1 0  -0.5 0.1 0  -0.4900000000000277 -0.5 0  -0.4800000000000555 -0.5 0  -0.4700000000000832 -0.5 0  -0.4600000000001109 -0.5 0  -0.4500000000001387 -0.5 0  -0.4400000000001664 -0.5 0  -0.4300000000001942 -0.5 0  -0.4200000000002219 -0.5 0  -0.4100000000002497 -0.5 0  -0.4000000000002774 -0.5 0  -0.3900000000003052 -0.5 0  -0.3800000000003328 -0.5 0  -0.3700000000003606 -0.5 0  -0.3600000000003883 -0.5 0  -0.3500000000004161 -0.5 0  -0.3400000000004438 -0.5 0  -0.3300000000004716 -0.5 0  -0.3200000000004993 -0.5 0  -0.3100000000005271 -0.5 0  -0.3000000000005548 -0.5 0  -0.2900000000005825 -0.5 0  -0.2800000000006103 -0.5 0  -0.2700000000006381 -0.5 0  -0.2600000000006658 -0.5 0  -0.2500000000006935 -0.5 0  -0.2400000000007212 -0.5 0  -0.230000000000749 -0.5 0  -0.2200000000007767 -0.5 0  -0.2100000000008044 -0.5 0  -0.2000000000008322 -0.5 0  -0.19000000000086 -0.5 0  -0.1800000000008877 -0.5 0  -0.1700000000009154 -0.5 0  -0.1600000000009431 -0.5 0  -0.1500000000009709 -0.5 0  -0.1400000000009986 -0.5 0  -0.1300000000010264 -0.5 0  -0.1200000000010541 -0.5 0  -0.1100000000010818 -0.5 0  -0.1000000000011096 -0.5 0  -0.09000000000113734 -0.5 0  -0.08000000000116503 -0.5 0  -0.07000000000119283 -0.5 0  -0.06000000000122058 -0.5 0  -0.05000000000124827 -0.5 0  -0.04000000000127607 -0.5 0  -0.03000000000130376 -0.5 0  -0.02000000000133151 -0.5 0  -0.01000000000135925 -0.5 0  -1.376121439022882e-12 -0.5 0  0.009999999998640763 -0.5 0  0.01999999999866864 -0.5 0  0.02999999999869629 -0.5 0  0.03999999999872406 -0.5 0  0.04999999999875182 -0.5 0  0.05999999999877947 -0.5 0  0.06999999999880724 -0.5 0  0.079999999998835 -0.5 0  0.08999999999886266 -0.5 0  0.09999999999889042 -0.5 0  0.1099999999989182 -0.5 0  0.1199999999989459 -0.5 0  0.1299999999989737 -0.5 0  0.1399999999990014 -0.5 0  0.1499999999990291 -0.5 0  0.1599999999990568 -0.5 0  0.1699999999990847 -0.5 0  0.1799999999991124 -0.5 0  0.1899999999991401 -0.5 0  0.1999999999991678 -0.5 0  0.2099999999991955 -0.5 0  0.2199999999992234 -0.5 0  0.2299999999992511 -0.5 0  0.2399999999992788 -0.5 0  0.2499999999993066 -0.5 0  0.2599999999993342 -0.5 0  0.269999999999362 -0.5 0  0.2799999999993897 -0.5 0  0.2899999999994175 -0.5 0  0.2999999999994452 -0.5 0  0.3099999999994729 -0.5 0  0.3199999999995007 -0.5 0  0.3299999999995284 -0.5 0  0.3399999999995562 -0.5 0  0.3499999999995839 -0.5 0  0.3599999999996116 -0.5 0  0.3699999999996393 -0.5 0  0.379999999999667 -0.5 0  0.3899999999996949 -0.5 0  0.3999999999997226 -0.5 0  0.4099999999997503 -0.5 0  0.419999999999778 -0.5 0  0.4299999999998058 -0.5 0  0.4399999999998336 -0.5 0  0.4499999999998613 -0.5 0  0.4599999999998891 -0.5 0  0.4699999999999167 -0.5 0  0.4799999999999445 -0.5 0  0.4899999999999722 -0.5 0  0.5 -0.4902110204681464 0  0.5 -0.4804459958734807 0  0.5 -0.4707048677450883 0  0.5 -0.4609875815766065 0  0.5 -0.4512940759251849 0  0.5 -0.4416242912883993 0  0.5 -0.4319781678689807 0  0.5 -0.4223556545383647 0  0.5 -0.4127566896324213 0  0.5 -0.4031812128200121 0  0.5 -0.3936291733057916 0  0.5 -0.3841005081172659 0  0.5 -0.3745951585781932 0  0.5 -0.3651130778999337 0  0.5 -0.3556541993788045 0  0.5 -0.3462184677228392 0  0.5 -0.3368058273705318 0  0.5 -0.3274162224888609 0  0.5 -0.3180495969712945 0  0.5 -0.3087058944357755 0  0.5 -0.299385058222682 0  0.5 -0.2900870313927414 0  0.5 -0.2808117567250807 0  0.5 -0.2715591844628491 0  0.5 -0.2623292564012653 0  0.5 -0.253121909553727 0  0.5 -0.2439371050851549 0  0.5 -0.2347747685524501 0  0.5 -0.2256348634421331 0  0.5 -0.2165173209784076 0  0.5 -0.207422087829958 0  0.5 -0.1983491207029381 0  0.5 -0.1892983550950482 0  0.5 -0.1802697378305253 0  0.5 -0.1712632154965152 0  0.5 -0.1622787344187354 0  0.5 -0.1533162406595534 0  0.5 -0.1443756800160514 0  0.5 -0.1354569980180493 0  0.5 -0.1265601399261414 0  0.5 -0.1176850622761093 0  0.5 -0.1088317009011999 0  0.5 -0.09166666666668973 0  0.5 -0.08333333333337943 0  0.5 -0.07500000000006915 0  0.5 -0.06666666666675886 0  0.5 -0.05833333333344858 0  0.5 -0.05000000000013693 0  0.5 -0.04166666666678191 0  0.5 -0.03333333333342643 0  0.5 -0.02500000000006916 0  0.5 -0.01666666666671188 0  0.5 -0.00833333333335548 0  0.5 0.008333333333318314 0  0.5 0.01666666666663358 0  0.5 0.02499999999994162 0  0.5 0.03333333333325101 0  0.5 0.04166666666655769 0  0.5 0.04999999999986843 0  0.5 0.05833333333322258 0  0.5 0.06666666666657715 0  0.5 0.07499999999993352 0  0.5 0.08333333333328992 0  0.5 0.09166666666664541 0  0.5 0.1088317009011616 0  0.5 0.1176850622760307 0  0.5 0.1265601399260203 0  0.5 0.1354569980178909 0  0.5 0.1443756800158549 0  0.5 0.153316240659315 0  0.5 0.1622787344184454 0  0.5 0.1712632154961752 0  0.5 0.1802697378301332 0  0.5 0.1892983550946039 0  0.5 0.1983491207024433 0  0.5 0.2074220878294123 0  0.5 0.216517320977811 0  0.5 0.2256348634414833 0  0.5 0.2347747685517479 0  0.5 0.2439371050844009 0  0.5 0.2531219095529224 0  0.5 0.2623292564004089 0  0.5 0.2715591844619371 0  0.5 0.2808117567241139 0  0.5 0.290087031391723 0  0.5 0.2993850582216101 0  0.5 0.3087058944347426 0  0.5 0.3180495969703129 0  0.5 0.3274162224879299 0  0.5 0.3368058273696494 0  0.5 0.3462184677220051 0  0.5 0.3556541993780186 0  0.5 0.3651130778991989 0  0.5 0.3745951585775107 0  0.5 0.3841005081166359 0  0.5 0.3936291733052134 0  0.5 0.4031812128194852 0  0.5 0.412756689631945 0  0.5 0.4223556545379392 0  0.5 0.431978167868607 0  0.5 0.4416242912880781 0  0.5 0.4512940759249164 0  0.5 0.4609875815763912 0  0.5 0.4707048677449264 0  0.5 0.4804459958733726 0  0.5 0.4902110204680924 0  0.4900000000000277 0.5 0  0.4800000000000555 0.5 0  0.4700000000000832 0.5 0  0.4600000000001109 0.5 0  0.4500000000001387 0.5 0  0.4400000000001664 0.5 0  0.4300000000001942 0.5 0  0.4200000000002219 0.5 0  0.4100000000002497 0.5 0  0.4000000000002774 0.5 0  0.3900000000003052 0.5 0  0.3800000000003328 0.5 0  0.3700000000003606 0.5 0  0.3600000000003883 0.5 0  0.3500000000004161 0.5 0  0.3400000000004438 0.5 0  0.3300000000004716 0.5 0  0.3200000000004993 0.5 0  0.3100000000005271 0.5 0  0.3000000000005548 0.5 0  0.2900000000005825 0.5 0  0.2800000000006103 0.5 0  0.2700000000006381 0.5 0  0.2600000000006658 0.5 0  0.2500000000006935 0.5 0  0.2400000000007212 0.5 0  0.230000000000749 0.5 0  0.2200000000007767 0.5 0  0.2100000000008044 0.5 0  0.2000000000008322 0.5 0  0.19000000000086 0.5 0  0.1800000000008877 0.5 0  0.1700000000009154 0.5 0  0.1600000000009431 0.5 0  0.1500000000009709 0.5 0  0.1400000000009986 0.5 0  0.1300000000010264 0.5 0  0.1200000000010541 0.5 0  0.1100000000010818 0.5 0  0.1000000000011096 0.5 0  0.09000000000113734 0.5 0  0.08000000000116503 0.5 0  0.07000000000119283 0.5 0  0.06000000000122058 0.5 0  0.05000000000124827 0.5 0  0.04000000000127607 0.5 0  0.03000000000130376 0.5 0  0.02000000000133151 0.5 0  0.01000000000135925 0.5 0  1.376121439022882e-12 0.5 0  -0.009999999998640763 0.5 0  -0.01999999999866864 0.5 0  -0.02999999999869629 0.5 0  -0.03999999999872406 0.5 0  -0.04999999999875182 0.5 0  -0.05999999999877947 0.5 0  -0.06999999999880724 0.5 0  -0.079999999998835 0.5 0  -0.08999999999886266 0.5 0  -0.09999999999889042 0.5 0  -0.1099999999989182 0.5 0  -0.1199999999989459 0.5 0  -0.1299999999989737 0.5 0  -0.1399999999990014 0.5 0  -0.1499999999990291 0.5 0  -0.1599999999990568 0.5 0  -0.1699999999990847 0.5 0  -0.1799999999991124 0.5 0  -0.1899999999991401 0.5 0  -0.1999999999991678 0.5 0  -0.2099999999991955 0.5 0  -0.2199999999992234 0.5 0  -0.2299999999992511 0.5 0  -0.2399999999992788 0.5 0  -0.2499999999993066 0.5 0  -0.2599999999993342 0.5 0  -0.269999999999362 0.5 0  -0.2799999999993897 0.5 0  -0.2899999999994175 0.5 0  -0.2999999999994452 0.5 0  -0.3099999999994729 0.5 0  -0.3199999999995007 0.5 0  -0.3299999999995284 0.5 0  -0.3399999999995562 0.5 0  -0.3499999999995839 0.5 0  -0.3599999999996116 0.5 0  -0.3699999999996393 0.5 0  -0.379999999999667 0.5 0  -0.3899999999996949 0.5 0  -0.3999999999997226 0.5 0  -0.4099999999997503 0.5 0  -0.419999999999778 0.5 0  -0.4299999999998058 0.5 0  -0.4399999999998336 0.5 0  -0.4499999999998613 0.5 0  -0.4599999999998891 0.5 0  -0.4699999999999167 0.5 0  -0.4799999999999445 0.5 0  -0.4899999999999722 0.5 0  -0.5 0.4902110204681464 0  -0.5 0.4804459958734807 0  -0.5 0.4707048677450883 0  -0.5 0.4609875815766065 0  -0.5 0.4512940759251849 0  -0.5 0.4416242912883993 0  -0.5 0.4319781678689807 0  -0.5 0.4223556545383647 0  -0.5 0.4127566896324213 0  -0.5 0.4031812128200121 0  -0.5 0.3936291733057916 0  -0.5 0.3841005081172659 0  -0.5 0.3745951585781932 0  -0.5 0.3651130778999337 0  -0.5 0.3556541993788045 0  -0.5 0.3462184677228392 0  -0.5 0.3368058273705318 0  -0.5 0.3274162224888609 0  -0.5 0.3180495969712945 0  -0.5 0.3087058944357755 0  -0.5 0.299385058222682 0  -0.5 0.2900870313927414 0  -0.5 0.2808117567250807 0  -0.5 0.2715591844628491 0  -0.5 0.2623292564012653 0  -0.5 0.253121909553727 0  -0.5 0.2439371050851549 0  -0.5 0.2347747685524501 0  -0.5 0.2256348634421331 0  -0.5 0.2165173209784076 0  -0.5 0.207422087829958 0  -0.5 0.1983491207029381 0  -0.5 0.1892983550950482 0  -0.5 0.1802697378305253 0  -0.5 0.1712632154965152 0  -0.5 0.1622787344187354 0  -0.5 0.1533162406595534 0  -0.5 0.1443756800160514 0  -0.5 0.1354569980180493 0  -0.5 0.1265601399261414 0  -0.5 0.1176850622761093 0  -0.5 0.1088317009011999 0  -0.5 0.09167500000001694 0  -0.5 0.08335000000003931 0  -0.5 0.07502500000006167 0  -0.5 0.06670000000008947 0  -0.5 0.05837500000011001 0  -0.5 0.0500500000001328 0  -0.5 0.0417250000001127 0  -0.5 0.03340000000008944 0  -0.5 0.02507500000006573 0  -0.5 0.01675000000004653 0  -0.5 0.008425000000027341 
[...]
<PointData  Vectors="f_7"> 
<DataArray  type="Float64"  Name="f_7"  NumberOfComponents="3" format="ascii">-1.5135763733469540e-06 1.1867612917652465e-04 0.0000000000000000e+00  0.0000000000000000e+00 0.0000000000000000e+00 0.0000000000000000e+00  0.0000000000000000e+00 0.0000000000000000e+00 0.0000000000000000e+00  -4.0767017889757334e-05 5.9423623543353747e-05 0.0000000000000000e+00  5.8435177656147700e-04 6.6500002965658054e-03 0.0000000000000000e+00  6.0138737929892820e-04 6.6500002965658054e-03 0.0000000000000000e+00  5.9292961669079030e-04 6.6479249339382708e-03 0.0000000000000000e+00  -3.5758965527879516e-07 -2.7230179186823874e-07 0.0000000000000000e+00  5.8599828364739475e-04 6.6379022746058895e-03 0.0000000000000000e+00  -4.9280305670783333e-06 8.3322756332975219e-06 0.0000000000000000e+00  -6.5940395627342879e-08 -2.6811368213803725e-07 0.0000000000000000e+00  5.9523893704556516e-04 6.6480225053392262e-03 0.0000000000000000e+00  0.0000000000000000e+00 0.0000000000000000e+00 0.0000000000000000e+00  0.0000000000000000e+00 0.0000000000000000e+00 0.0000000000000000e+00  0.0000000000000000e+00 0.0000000000000000e+00 0.0000000000000000e+00  0.0000000000000000e+00 0.0000000000000000e+00 0.0000000000000000e+00  0.0000000000000000e+00 0.0000000000000000e+00 0.0000000000000000e+00  0.0000000000000000e+00 0.0000000000000000e+00 0.0000000000000000e+00  0.0000000000000000e+00 0.0000000000000000e+00 0.0000000000000000e+00  0.0000000000000000e+00 0.0000000000000000e+00 0.0000000000000000e+00  0.0000000000000000e+00 0.0000000000000000e+00 0.0000000000000000e+00  0.0000000000000000e+00 0.0000000000000000e+00 0.0000000000000000e+00  0.0000000000000000e+00 0.0000000000000000e+00 0.0000000000000000e+00  0.0000000000000000e+00 0.0000000000000000e+00 0.0000000000000000e+00  0.0000000000000000e+00 0.0000000000000000e+00 0.0000000000000000e+00  0.0000000000000000e+00 0.0000000000000000e+00 0.0000000000000000e+00  0.0000000000000000e+00 0.0000000000000000e+00 0.0000000000000000e+00  0.0000000000000000e+00 0.0000000000000000e+00 0.0000000000000000e+00  0.0000000000000000e+00 0.0000000000000000e+00 0.0000000000000000e+00  0.0000000000000000e+00 0.0000000000000000e+00 0.0000000000000000e+00  0.0000000000000000e+00 0.0000000000000000e+00 0.0000000000000000e+00  0.0000000000000000e+00 0.0000000000000000e+00 0.0000000000000000e+00  0.0000000000000000e+00 0.0000000000000000e+00 0.0000000000000000e+00  0.0000000000000000e+00 0.0000000000000000e+00 0.0000000000000000e+00  0.0000000000000000e+00 0.0000000000000000e+00 0.0000000000000000e+00  0.0000000000000000e+00 0.0000000000000000e+00 0.0000000000000000e+00  0.0000000000000000e+00 0.0000000000000000e+00 0.0000000000000000e+00  0.0000000000000000e+00 0.0000000000000000e+00 0.0000000000000000e+00  0.0000000000000000e+00 0.0000000000000000e+00 0.0000000000000000e+00  0.0000000000000000e+00 0.0000000000000000e+00 0.0000000000000000e+00  0.0000000000000000e+00 0.0000000000000000e+00 0.0000000000000000e+00  0.0000000000000000e+00 0.0000000000000000e+00 0.0000000000000000e+00  0.0000000000000000e+00 0.0000000000000000e+00 0.0000000000000000e+00  0.0000000000000000e+00 0.0000000000000000e+00 0.0000000000000000e+00  0.0000000000000000e+00 0.0000000000000000e+00 0.0000000000000000e+00  0.0000000000000000e+00 0.0000000000000000e+00 0.0000000000000000e+00  0.0000000000000000e+00 0.0000000000000000e+00 0.0000000000000000e+00  0.0000000000000000e+00 0.0000000000000000e+00 0.0000000000000000e+00  0.0000000000000000e+00 0.0000000000000000e+00 0.0000000000000000e+00  0.0000000000000000e+00 0.0000000000000000e+00 0.0000000000000000e+00  0.0000000000000000e+00 0.0000000000000000e+00 0.0000000000000000e+00  0.0000000000000000e+00 0.0000000000000000e+00 0.0000000000000000e+00  0.0000000000000000e+00 0.0000000000000000e+00 0.0000000000000000e+00  0.0000000000000000e+00 0.0000000000000000e+00 0.0000000000000000e+00  0.0000000000000000e+00 0.0000000000000000e+00 0.0000000000000000e+00  0.0000000000000000e+00 0.0000000000000000e+00 0.0000000000000000e+00  0.0000000000000000e+00 0.0000000000000000e+00 0.0000000000000000e+00  0.0000000000000000e+00 0.0000000000000000e+00 0.0000000000000000e+00  0.0000000000000000e+00 0.0000000000000000e+00 0.0000000000000000e+00  0.0000000000000000e+00 0.0000000000000000e+00 0.0000000000000000e+00  0.0000000000000000e+00 0.0000000000000000e+00 0.0000000000000000e+00  0.0000000000000000e+00 0.0000000000000000e+00 0.0000000000000000e+00  0.0000000000000000e+00 0.0000000000000000e+00 0.0000000000000000e+00  0.0000000000000000e+00 0.0000000000000000e+00 0.0000000000000000e+00  0.0000000000000000e+00 0.0000000000000000e+00 0.0000000000000000e+00  0.0000000000000000e+00 0.0000000000000000e+00 0.0000000000000000e+00  0.0000000000000000e+00 0.0000000000000000e+00 0.0000000000000000e+00  0.0000000000000000e+00 0.0000000000000000e+00 0.0000000000000000e+00  0.0000000000000000e+00 0.0000000000000000e+00 0.0000000000000000e+00  0.0000000000000000e+00 0.0000000000000000e+00 0.0000000000000000e+00  0.0000000000000000e+00 0.0000000000000000e+00 0.0000000000000000e+00  0.0000000000000000e+00 0.0000000000000000e+00 0.0000000000000000e+00  0.0000000000000000e+00 0.0000000000000000e+00 0.0000000000000000e+00  0.0000000000000000e+00 0.0000000000000000e+00 0.0000000000000000e+00  0.0000000000000000e+00 0.0000000000000000e+00 0.0000000000000000e+00  0.0000000000000000e+00 0.0000000000000000e+00 0.0000000000000000e+00  0.0000000000000000e+00 0.0000000000000000e+00 0.0000000000000000e+00  0.0000000000000000e+00 0.0000000000000000e+00 0.0000000000000000e+00  0.0000000000000000e+00 0.0000000000000000e+00 0.0000000000000000e+00  0.0000000000000000e+00 0.0000000000000000e+00 0.0000000000000000e+00  0.0000000000000000e+00 0.0000000000000000e+00 0.0000000000000000e+00  0.0000000000000000e+00 0.0000000000000000e+00 0.0000000000000000e+00  0.0000000000000000e+00 0.0000000000000000e+00 0.0000000000000000e+00  0.0000000000000000e+00 0.0000000000000000e+00 0.0000000000000000e+00  0.0000000000000000e+00 0.0000000000000000e+00 0.0000000000000000e+00  0.0000000000000000e+00 0.0000000000000000e+00 0.0000000000000000e+00  0.0000000000000000e+00 0.0000000000000000e+00 0.0000000000000000e+00  0.0000000000000000e+00 0.0000000000000000e+00 0.0000000000000000e+00  0.0000000000000000e+00 0.0000000000000000e+00 0.0000000000000000e+00  0.0000000000000000e+00 0.0000000000000000e+00 0.0000000000000000e+00  0.0000000000000000e+00 0.0000000000000000e+00 0.0000000000000000e+00  0.0000000000000000e+00 0.0000000000000000e+00 0.0000000000000000e+00  0.0000000000000000e+00 0.0000000000000000e+00 0.0000000000000000e+00  0.0000000000000000e+00 0.0000000000000000e+00 0.0000000000000000e+00  0.0000000000000000e+00 0.0000000000000000e+00 0.0000000000000000e+00  0.0000000000000000e+00 0.0000000000000000e+00 0.0000000000000000e+00  0.0000000000000000e+00 0.0000000000000000e+00 0.0000000000000000e+00  0.0000000000000000e+00 0.0000000000000000e+00 0.0000000000000000e+00  0.0000000000000000e+00 0.0000000000000000e+00 0.0000000000000000e+00  0.0000000000000000e+00 0.0000000000000000e+00 0.0000000000000000e+00  0.0000000000000000e+00 0.0000000000000000e+00 0.0000000000000000e+00  0.0000000000000000e+00 0.0000000000000000e+00 0.0000000000000000e+00  0.0000000000000000e+00 0.0000000000000000e+00 0.0000000000000000e+00  0.0000000000000000e+00 0.0000000000000000e+00 0.0000000000000000e+00  0.0000000000000000e+00 0.0000000000000000e+00 0.0000000000000000e+00  0.0000000000000000e+00 0.0000000000000000e+00 0.0000000000000000e+00  0.0000000000000000e+00 0.0000000000000000e+00 0.0000000000000000e+00  0.0000000000000000e+00 0.0000000000000000e+00 0.0000000000000000e+00  0.0000000000000000e+00 0.0000000000000000e+00 0.0000000000000000e+00  0.0000000000000000e+00 0.0000000000000000e+00 0.0000000000000000e+00  0.0000000000000000e+00 0.0000000000000000e+00 0.0000000000000000e+00  -4.5795656909513292e-07 4.8152612034388008e-07 0.0000000000000000e+00  -7.4016437056373637e-07 8.2518915950529709e-07 0.0000000000000000e+00  -9.6413671205490466e-07 1.1152255296683999e-06 0.0000000000000000e+00  -1.1547046885294572e-06 1.3726006197742589e-06 0.0000000000000000e+00  -1.3225402033961949e-06 1.6092574325701865e-06 0.0000000000000000e+00  -1.4744317815161205e-06 1.8319626495164702e-06 0.0000000000000000e+00  -1.6155403072735919e-06 2.0442542912566641e-06 0.0000000000000000e+00  -1.7446703063203600e-06 2.2489857212565228e-06 0.0000000000000000e+00  -1.8656928783658104e-06 2.4479136541651588e-06 0.0000000000000000e+00  -1.9813261792490863e-06 2.6413529389679054e-06 0.0000000000000000e+00  -2.0909777777954865e-06 2.8316441308475796e-06 0.0000000000000000e+00  -2.1962624766177571e-06 3.0178674498060293e-06 0.0000000000000000e+00  -2.2972433324775134e-06 3.2022471309761187e-06 0.0000000000000000e+00  -2.3954004448753720e-06 3.3832843652941201e-06 0.0000000000000000e+00  -2.4905738598313599e-06 3.5630062357862400e-06 0.0000000000000000e+00  -2.5839000073501334e-06 3.7406643232987730e-06 0.0000000000000000e+00  -2.6746131945331721e-06 3.9166513672766770e-06 0.0000000000000000e+00  -2.7636783154459752e-06 4.0910950645947395e-06 0.0000000000000000e+00  -2.8515399653463905e-06 4.2647073725667769e-06 0.0000000000000000e+00  -2.9378477343053145e-06 4.4367949078482839e-06 0.0000000000000000e+00  -3.0230587070259380e-06 4.6079054380092267e-06 0.0000000000000000e+00  -3.1073292078782733e-06 4.7780053090695002e-06 0.0000000000000000e+00  -3.1908584311846700e-06 4.9470968247877008e-06 0.0000000000000000e+00  -3.2737088019630224e-06 5.1152874998216233e-06 0.0000000000000000e+00  -3.3560262798270458e-06 5.2826133990220424e-06 0.0000000000000000e+00  -3.4379300699767326e-06 5.4492031428929413e-06 0.0000000000000000e+00  -3.5195723728684111e-06 5.6150236653629225e-06 0.0000000000000000e+00  -3.6009014149872194e-06 5.7802439335725038e-06 0.0000000000000000e+00  -3.6820496010456774e-06 5.9449527811370884e-06 0.0000000000000000e+00  -3.7631737640715429e-06 6.1091557630779986e-06 0.0000000000000000e+00  -3.8445336312028135e-06 6.2728822848580107e-06 0.0000000000000000e+00  -3.9261524367846969e-06 6.4363338540117991e-06 0.0000000000000000e+00  -4.0081901692423304e-06 6.5997222172683334e-06 0.0000000000000000e+00  -4.0908591520669725e-06 6.7633494806563142e-06 0.0000000000000000e+00  -4.1740833413032768e-06 6.9271175532241069e-06 0.0000000000000000e+00  -4.2587495530876180e-06 7.0918606612959585e-06 0.0000000000000000e+00  -4.3447478630571440e-06 7.2577926585375606e-06 0.0000000000000000e+00  -4.4324477252083095e-06 7.4260516942053956e-06 0.0000000000000000e+00  -4.5227980327624040e-06 7.5962816970053376e-06 0.0000000000000000e+00  -4.6159412783965302e-06 7.7703859886398086e-06 0.0000000000000000e+00  -4.7139917134140026e-06 7.9498683226896686e-06 0.0000000000000000e+00  -4.8177203690068501e-06 8.1373952517944881e-06 0.0000000000000000e+00  -5.0446347531011011e-06 8.5312544304849052e-06 0.0000000000000000e+00  -5.1736258403987548e-06 8.7495318001522686e-06 0.0000000000000000e+00  -5.3209304068602862e-06 8.9859572887081349e-06 0.0000000000000000e+00  -5.4968502148551770e-06 9.2670276568608115e-06 0.0000000000000000e+00  -5.6990786957296474e-06 9.5823515865584550e-06 0.0000000000000000e+00  -5.9739103157517832e-06 9.9687994957631586e-06 0.0000000000000000e+00  -6.3312299286441497e-06 1.0521799243543718e-05 0.0000000000000000e+00  -6.8728328149664869e-06 1.1283207638021320e-05 0.0000000000000000e+00  -7.7053450491752740e-06 1.2433496584643178e-05 0.0000000000000000e+00  -9.4560440044358278e-06 1.4897038348582212e-05 0.0000000000000000e+00  -1.4959038565913284e-05 2.2598160194578868e-05 0.0000000000000000e+00  -7.4095749487813000e-04 5.0941690323343782e-03 0.0000000000000000e+00  5.4582584542190924e-04 6.5786988629617090e-03 0.0000000000000000e+00  5.7590579409460521e-04 6.6216731034850936e-03 0.0000000000000000e+00  5.8195643078396417e-04 6.6305738128564981e-03 0.0000000000000000e+00  5.8391416840538691e-04 6.6334752186444912e-03 0.0000000000000000e+00  5.8476707199999899e-04 6.6348237934748646e-03 0.0000000000000000e+00  5.8525256854940024e-04 6.6357620815575800e-03 0.0000000000000000e+00  5.8555687289138828e-04 6.6363829946607441e-03 0.0000000000000000e+00  5.8574543422931313e-04 6.6368611339320278e-03 0.0000000000000000e+00  5.8585747116346757e-04 6.6372436352916545e-03 0.0000000000000000e+00  5.8594690296779120e-04 6.6375929070819056e-03 0.0000000000000000e+00  5.8602316375910781e-04 6.6381993444584132e-03 0.0000000000000000e+00  5.8603270480732318e-04 6.6384848715538188e-03 0.0000000000000000e+00  5.8602945976948763e-04 6.6387563420893733e-03 0.0000000000000000e+00  5.8601432041923405e-04 6.6390188891091006e-03 0.0000000000000000e+00  5.8598991604087995e-04 6.6392784814893087e-03 0.0000000000000000e+00  5.8595957778633564e-04 6.6395383713403842e-03 0.0000000000000000e+00  5.8592273122689555e-04 6.6397969818305820e-03 0.0000000000000000e+00  5.8588143288360885e-04 6.6400558519276263e-03 0.0000000000000000e+00  5.8583507518065200e-04 6.6403137830285579e-03 0.0000000000000000e+00  5.8578722061431105e-04 6.6405742417647217e-03 0.0000000000000000e+00  5.8573491314395062e-04 6.6408370211635667e-03 0.0000000000000000e+00  5.8568026758539209e-04 6.6411013377402637e-03 0.0000000000000000e+00  5.8562609959917961e-04 6.6413658444685383e-03 0.0000000000000000e+00  5.8557200110348864e-04 6.6416349815548127e-03 0.0000000000000000e+00  5.8551602001352307e-04 6.6419058726368612e-03 0.0000000000000000e+00  5.8545927645173876e-04 6.6421775407812956e-03 0.0000000000000000e+00  5.8540314689359133e-04 6.6424523227482405e-03 0.0000000000000000e+00  5.8534738097273584e-04 6.6427301375815255e-03 0.0000000000000000e+00  5.8529019335780245e-04 6.6430118172965081e-03 0.0000000000000000e+00  5.8522763858410217e-04 6.6432973604792544e-03 0.0000000000000000e+00  5.8516271511622217e-04 6.6435850132308613e-03 0.0000000000000000e+00  5.8509689804241702e-04 6.6438743504692553e-03 0.0000000000000000e+00  5.8502859740887944e-04 6.6441624009994388e-03 0.0000000000000000e+00  5.8495765823011396e-04 6.6444559844448959e-03 0.0000000000000000e+00  5.8488544977932625e-04 6.6447506857917641e-03 0.0000000000000000e+00  5.8481025750404929e-04 6.6450358018076069e-03 0.0000000000000000e+00  5.8473763950592434e-04 6.6453072441118631e-03 0.0000000000000000e+00  5.8469522407860169e-04 6.6455893645035752e-03 0.0000000000000000e+00  5.8465587940613234e-04 6.6458844919067214e-03 0.0000000000000000e+00  5.8461232896103135e-04 6.6461833540290291e-03 0.0000000000000000e+00  5.8456989898611304e-04 6.6464768193985743e-03 0.0000000000000000e+00  5.8452921289590400e-04 6.6467712394226658e-03 0.0000000000000000e+00  5.8449028344877249e-04 6.6470670944809894e-03 0.0000000000000000e+00  5.8444977452307167e-04 6.6473631453098491e-03 0.0000000000000000e+00  5.8440649665309960e-04 6.6476592237236171e-03 0.0000000000000000e+00  5.8437893105427554e-04 6.6479455371700694e-03 0.0000000000000000e+00  5.8436529311143095e-04 6.6482323573113520e-03 0.0000000000000000e+00  5.8435915747806911e-04 6.6485287090737527e-03 0.0000000000000000e+00  5.8434950819198964e-04 6.6488239600972681e-03 0.0000000000000000e+00  5.8433626920809730e-04 6.6491146549972867e-03 0.0000000000000000e+00  5.8433503820471322e-04 6.6494103555737186e-03 0.0000000000000000e+00  5.8434970454824251e-04 6.6497073012526317e-03 0.0000000000000000e+00  5.8448621284727339e-04 6.6500002965658054e-03 0.0000000000000000e+00  5.8462692169911263e-04 6.6500002965658054e-03 0.0000000000000000e+00  5.8476583297287720e-04 6.6500002965658054e-03 0.0000000000000000e+00  5.8491379493443376e-04 6.6500002965658054e-03 0.0000000000000000e+00  5.8507246186540417e-04 6.6500002965658054e-03 0.0000000000000000e+00  5.8523167472922732e-04 6.6500002965658054e-03 0.0000000000000000e+00  5.8539583607626915e-04 6.6500002965658054e-03 0.0000000000000000e+00  5.8557127834998760e-04 6.6500002965658054e-03 0.0000000000000000e+00  5.8575079666694824e-04 6.6500002965658054e-03 0.0000000000000000e+00  5.8593958941574435e-04 6.6500002965658054e-03 0.0000000000000000e+00  5.8613544290728864e-04 6.6500002965658054e-03 0.0000000000000000e+00  5.8632566343253868e-04 6.6500002965658054e-03 0.0000000000000000e+00  5.8653414746267639e-04 6.6500002965658054e-03 0.0000000000000000e+00  5.8674260731141450e-04 6.6500002965658054e-03 0.0000000000000000e+00  5.8694494826409208e-04 6.6500002965658054e-03 0.0000000000000000e+00  5.8715565798257480e-04 6.6500002965658054e-03 0.0000000000000000e+00  5.8737467849268347e-04 6.6500002965658054e-03 0.0000000000000000e+00  5.8758992333628494e-04 6.6500002965658054e-03 0.0000000000000000e+00  5.8780809474294786e-04 6.6500002965658054e-03 0.0000000000000000e+00  5.8803096264039580e-04 6.6500002965658054e-03 0.0000000000000000e+00  5.8826512548598579e-04 6.6500002965658054e-03 0.0000000000000000e+00  5.8848983798626250e-04 6.6500002965658054e-03 0.0000000000000000e+00  5.8871921786417269e-04 6.6500002965658054e-03 0.0000000000000000e+00  5.8895259714941998e-04 6.6500002965658054e-03 0.0000000000000000e+00  5.8918041528651407e-04 6.6500002965658054e-03 0.0000000000000000e+00  5.8941041542920488e-04 6.6500002965658054e-03 0.0000000000000000e+00  5.8963647657609059e-04 6.6500002965658054e-03 0.0000000000000000e+00  5.8985892682197807e-04 6.6500002965658054e-03 0.0000000000000000e+00  5.9008655949479953e-04 6.6500002965658054e-03 0.0000000000000000e+00  5.9031319124062357e-04 6.6500002965658054e-03 0.0000000000000000e+00  5.9053384402098295e-04 6.6500002965658054e-03 0.0000000000000000e+00  5.9074620037985579e-04 6.6500002965658054e-03 0.0000000000000000e+00  5.9095849870962149e-04 6.6500002965658054e-03 0.0000000000000000e+00  5.9116923230488974e-04 6.6500002965658054e-03 0.0000000000000000e+00  5.9137823411477752e-04 6.6500002965658054e-03 0.0000000000000000e+00  5.9157539691258732e-04 6.6500002965658054e-03 0.0000000000000000e+00  5.9177236498151567e-04 6.6500002965658054e-03 0.0000000000000000e+00  5.9196607432473287e-04 6.6500002965658054e-03 0.0000000000000000e+00  5.9216100432582682e-04 6.6500002965658054e-03 0.0000000000000000e+00  5.9235545471965920e-04 6.6500002965658054e-03 0.0000000000000000e+00  5.9254760692914867e-04 6.6500002965658054e-03 0.0000000000000000e+00  5.9273266059651261e-04 6.6500002965658054e-03 0.0000000000000000e+00  5.9291516674174721e-04 6.6500002965658054e-03 0.0000000000000000e+00  5.9310178019214175e-04 6.6500002965658054e-03 0.0000000000000000e+00  5.9328270857998331e-04 6.6500002965658054e-03 0.0000000000000000e+00  5.9346761766851874e-04 6.6500002965658054e-03 0.0000000000000000e+00  5.9365048955597197e-04 6.6500002965658054e-03 0.0000000000000000e+00  5.9383361297991844e-04 6.6500002965658054e-03 0.0000000000000000e+00  5.9401576494656381e-04 6.6500002965658054e-03 0.0000000000000000e+00  5.9419547041414974e-04 6.6500002965658054e-03 0.0000000000000000e+00  5.9437504607167421e-04 6.6500002965658054e-03 0.0000000000000000e+00  5.9455288809441640e-04 6.6500002965658054e-03 0.0000000000000000e+00  5.9473170023393858e-04 6.6500002965658054e-03 0.0000000000000000e+00  5.9490701496551070e-04 6.6500002965658054e-03 0.0000000000000000e+00  5.9508316948949302e-04 6.6500002965658054e-03 0.0000000000000000e+00  5.9526042919810188e-04 6.6500002965658054e-03 0.0000000000000000e+00  5.9543477401133586e-04 6.6500002965658054e-03 0.0000000000000000e+00  5.9561161423305126e-04 6.6500002965658054e-03 0.0000000000000000e+00  5.9578716619743881e-04 6.6500002965658054e-03 0.0000000000000000e+00  5.9596696548425631e-04 6.6500002965658054e-03 0.0000000000000000e+00  5.9615232184033690e-04 6.6500002965658054e-03 0.0000000000000000e+00  5.9633578326257950e-04 6.6500002965658054e-03 0.0000000000000000e+00  5.9651624547188539e-04 6.6500002965658054e-03 0.0000000000000000e+00  5.9669937628220484e-04 6.6500002965658054e-03 0.0000000000000000e+00  5.9688922483677655e-04 6.6500002965658054e-03 0.0000000000000000e+00  5.9707487863544767e-04 6.6500002965658054e-03 0.0000000000000000e+00  5.9725906151097854e-04 