<?xml version="1.0"?>
<VTKFile type="UnstructuredGrid"  version="0.1"  >
<UnstructuredGrid>
<Piece  NumberOfPoints="15540" NumberOfCells="30546">
<Points>
<DataArray  type="Float64"  NumberOfComponents="3"  format="ascii">0 0 0  -0.5 -0.5 0  0.5 -0.5 0  0.5 0 0  0.5 0.5 0  -0.5 0.5 0  -0.5 0.0001 0  -0.5 -0.0001 0  0.5 0.1 0  0.5 -0.1 0  -0.5 -0.1 0  -0.5 0.1 0  -0.4900000000000277 -0.5 0  -0.4800000000000555 -0.5 0  -0.4700000000000832 -0.5 0  -0.4600000000001109 -0.5 0  -0.4500000000001387 -0.5 0  -0.4400000000001664 -0.5 0  -0.4300000000001942 -0.5 0  -0.4200000000002219 -0.5 0  -0.4100000000002497 -0.5 0  -0.4000000000002774 -0.5 0  -0.3900000000003052 -0.5 0  -0.3800000000003328 -0.5 0  -0.3700000000003606 -0.5 0  -0.3600000000003883 -0.5 0  -0.3500000000004161 -0.5 0  -0.3400000000004438 -0.5 0  -0.3300000000004716 -0.5 0  -0.3200000000004993 -0.5 0  -0.3100000000005271 -0.5 0  -0.3000000000005548 -0.5 0  -0.2900000000005825 -0.5 0  -0.2800000000006103 -0.5 0  -0.2700000000006381 -0.5 0  -0.2600000000006658 -0.5 0  -0.2500000000006935 -0.5 0  -0.2400000000007212 -0.5 0  -0.230000000000749 -0.5 0  -0.2200000000007767 -0.5 0  -0.2100000000008044 -0.5 0  -0.2000000000008322 -0.5 0  -0.19000000000086 -0.5 0  -0.1800000000008877 -0.5 0  -0.1700000000009154 -0.5 0  -0.1600000000009431 -0.5 0  -0.1500000000009709 -0.5 0  -0.1400000000009986 -0.5 0  -0.1300000000010264 -0.5 0  -0.1200000000010541 -0.5 0  -0.1100000000010818 -0.5 0  -0.1000000000011096 -0.5 0  -0.09000000000113734 -0.5 0  -0.08000000000116503 -0.5 0  -0.07000000000119283 -0.5 0  -0.06000000000122058 -0.5 0  -0.05000000000124827 -0.5 0  -0.04000000000127607 -0.5 0  -0.03000000000130376 -0.5 0  -0.02000000000133151 -0.5 0  -0.01000000000135925 -0.5 0  -1.376121439022882e-12 -0.5 0  0.009999999998640763 -0.5 0  0.01999999999866864 -0.5 0  0.02999999999869629 -0.5 0  0.03999999999872406 -0.5 0  0.04999999999875182 -0.5 0  0.05999999999877947 -0.5 0  0.06999999999880724 -0.5 0  0.079999999998835 -0.5 0  0.08999999999886266 -0.5 0  0.09999999999889042 -0.5 0  0.1099999999989182 -0.5 0  0.1199999999989459 -0.5 0  0.1299999999989737 -0.5 0  0.1399999999990014 -0.5 0  0.1499999999990291 -0.5 0  0.1599999999990568 -0.5 0  0.1699999999990847 -0.5 0  0.1799999999991124 -0.5 0  0.1899999999991401 -0.5 0  0.1999999999991678 -0.5 0  0.2099999999991955 -0.5 0  0.2199999999992234 -0.5 0  0.2299999999992511 -0.5 0  0.2399999999992788 -0.5 0  0.2499999999993066 -0.5 0  0.2599999999993342 -0.5 0  0.269999999999362 -0.5 0  0.2799999999993897 -0.5 0  0.2899999999994175 -0.5 0  0.2999999999994452 -0.5 0  0.3099999999994729 -0.5 0  0.3199999999995007 -0.5 0  0.3299999999995284 -0.5 0  0.3399999999995562 -0.5 0  0.3499999999995839 -0.5 0  0.3599999999996116 -0.5 0  0.3699999999996393 -0.5 0  0.379999999999667 -0.5 0  0.3899999999996949 -0.5 0  0.3999999999997226 -0.5 0  0.4099999999997503 -0.5 0  0.419999999999778 -0.5 0  0.4299999999998058 -0.5 0  0.4399999999998336 -0.5 0  0.4499999999998613 -0.5 0  0.4599999999998891 -0.5 0  0.4699999999999167 -0.5 0  0.4799999999999445 -0.5 0  0.4899999999999722 -0.5 0  0.5 -0.4902110204681464 0  0.5 -0.4804459958734807 0  0.5 -0.4707048677450883 0  0.5 -0.4609875815766065 0  0.5 -0.4512940759251849 0  0.5 -0.4416242912883993 0  0.5 -0.4319781678689807 0  0.5 -0.4223556545383647 0  0.5 -0.4127566896324213 0  0.5 -0.4031812128200121 0  0.5 -0.3936291733057916 0  0.5 -0.3841005081172659 0  0.5 -0.3745951585781932 0  0.5 -0.3651130778999337 0  0.5 -0.3556541993788045 0  0.5 -0.3462184677228392 0  0.5 -0.3368058273705318 0  0.5 -0.3274162224888609 0  0.5 -0.3180495969712945 0  0.5 -0.3087058944357755 0  0.5 -0.299385058222682 0  0.5 -0.2900870313927414 0  0.5 -0.2808117567250807 0  0.5 -0.2715591844628491 0  0.5 -0.2623292564012653 0  0.5 -0.253121909553727 0  0.5 -0.2439371050851549 0  0.5 -0.2347747685524501 0  0.5 -0.2256348634421331 0  0.5 -0.2165173209784076 0  0.5 -0.207422087829958 0  0.5 -0.1983491207029381 0  0.5 -0.1892983550950482 0  0.5 -0.1802697378305253 0  0.5 -0.1712632154965152 0  0.5 -0.1622787344187354 0  0.5 -0.1533162406595534 0  0.5 -0.1443756800160514 0  0.5 -0.1354569980180493 0  0.5 -0.1265601399261414 0  0.5 -0.1176850622761093 0  0.5 -0.1088317009011999 0  0.5 -0.09166666666668973 0  0.5 -0.08333333333337943 0  0.5 -0.07500000000006915 0  0.5 -0.06666666666675886 0  0.5 -0.05833333333344858 0  0.5 -0.05000000000013693 0  0.5 -0.04166666666678191 0  0.5 -0.03333333333342643 0  0.5 -0.02500000000006916 0  0.5 -0.01666666666671188 0  0.5 -0.00833333333335548 0  0.5 0.008333333333318314 0  0.5 0.01666666666663358 0  0.5 0.02499999999994162 0  0.5 0.03333333333325101 0  0.5 0.04166666666655769 0  0.5 0.04999999999986843 0  0.5 0.05833333333322258 0  0.5 0.06666666666657715 0  0.5 0.07499999999993352 0  0.5 0.08333333333328992 0  0.5 0.09166666666664541 0  0.5 0.1088317009011616 0  0.5 0.1176850622760307 0  0.5 0.1265601399260203 0  0.5 0.1354569980178909 0  0.5 0.1443756800158549 0  0.5 0.153316240659315 0  0.5 0.1622787344184454 0  0.5 0.1712632154961752 0  0.5 0.1802697378301332 0  0.5 0.1892983550946039 0  0.5 0.1983491207024433 0  0.5 0.2074220878294123 0  0.5 0.216517320977811 0  0.5 0.2256348634414833 0  0.5 0.2347747685517479 0  0.5 0.2439371050844009 0  0.5 0.2531219095529224 0  0.5 0.2623292564004089 0  0.5 0.2715591844619371 0  0.5 0.2808117567241139 0  0.5 0.290087031391723 0  0.5 0.2993850582216101 0  0.5 0.3087058944347426 0  0.5 0.3180495969703129 0  0.5 0.3274162224879299 0  0.5 0.3368058273696494 0  0.5 0.3462184677220051 0  0.5 0.3556541993780186 0  0.5 0.3651130778991989 0  0.5 0.3745951585775107 0  0.5 0.3841005081166359 0  0.5 0.3936291733052134 0  0.5 0.4031812128194852 0  0.5 0.412756689631945 0  0.5 0.4223556545379392 0  0.5 0.431978167868607 0  0.5 0.4416242912880781 0  0.5 0.4512940759249164 0  0.5 0.4609875815763912 0  0.5 0.4707048677449264 0  0.5 0.4804459958733726 0  0.5 0.4902110204680924 0  0.4900000000000277 0.5 0  0.4800000000000555 0.5 0  0.4700000000000832 0.5 0  0.4600000000001109 0.5 0  0.4500000000001387 0.5 0  0.4400000000001664 0.5 0  0.4300000000001942 0.5 0  0.4200000000002219 0.5 0  0.4100000000002497 0.5 0  0.4000000000002774 0.5 0  0.3900000000003052 0.5 0  0.3800000000003328 0.5 0  0.3700000000003606 0.5 0  0.3600000000003883 0.5 0  0.3500000000004161 0.5 0  0.3400000000004438 0.5 0  0.3300000000004716 0.5 0  0.3200000000004993 0.5 0  0.3100000000005271 0.5 0  0.3000000000005548 0.5 0  0.2900000000005825 0.5 0  0.2800000000006103 0.5 0  0.2700000000006381 0.5 0  0.2600000000006658 0.5 0  0.2500000000006935 0.5 0  0.2400000000007212 0.5 0  0.230000000000749 0.5 0  0.2200000000007767 0.5 0  0.2100000000008044 0.5 0  0.2000000000008322 0.5 0  0.19000000000086 0.5 0  0.1800000000008877 0.5 0  0.1700000000009154 0.5 0  0.1600000000009431 0.5 0  0.1500000000009709 0.5 0  0.1400000000009986 0.5 0  0.1300000000010264 0.5 0  0.1200000000010541 0.5 0  0.1100000000010818 0.5 0  0.1000000000011096 0.5 0  0.09000000000113734 0.5 0  0.08000000000116503 0.5 0  0.07000000000119283 0.5 0  0.06000000000122058 0.5 0  0.05000000000124827 0.5 0  0.04000000000127607 0.5 0  0.03000000000130376 0.5 0  0.02000000000133151 0.5 0  0.01000000000135925 0.5 0  1.376121439022882e-12 0.5 0  -0.009999999998640763 0.5 0  -0.01999999999866864 0.5 0  -0.02999999999869629 0.5 0  -0.03999999999872406 0.5 0  -0.04999999999875182 0.5 0  -0.05999999999877947 0.5 0  -0.06999999999880724 0.5 0  -0.079999999998835 0.5 0  -0.08999999999886266 0.5 0  -0.09999999999889042 0.5 0  -0.1099999999989182 0.5 0  -0.1199999999989459 0.5 0  -0.1299999999989737 0.5 0  -0.1399999999990014 0.5 0  -0.1499999999990291 0.5 0  -0.1599999999990568 0.5 0  -0.1699999999990847 0.5 0  -0.1799999999991124 0.5 0  -0.1899999999991401 0.5 0  -0.1999999999991678 0.5 0  -0.2099999999991955 0.5 0  -0.2199999999992234 0.5 0  -0.2299999999992511 0.5 0  -0.2399999999992788 0.5 0  -0.2499999999993066 0.5 0  -0.2599999999993342 0.5 0  -0.269999999999362 0.5 0  -0.2799999999993897 0.5 0  -0.2899999999994175 0.5 0  -0.2999999999994452 0.5 0  -0.3099999999994729 0.5 0  -0.3199999999995007 0.5 0  -0.3299999999995284 0.5 0  -0.3399999999995562 0.5 0  -0.3499999999995839 0.5 0  -0.3599999999996116 0.5 0  -0.3699999999996393 0.5 0  -0.379999999999667 0.5 0  -0.3899999999996949 0.5 0  -0.3999999999997226 0.5 0  -0.4099999999997503 0.5 0  -0.419999999999778 0.5 0  -0.4299999999998058 0.5 0  -0.4399999999998336 0.5 0  -0.4499999999998613 0.5 0  -0.4599999999998891 0.5 0  -0.4699999999999167 0.5 0  -0.4799999999999445 0.5 0  -0.4899999999999722 0.5 0  -0.5 0.4902110204681464 0  -0.5 0.4804459958734807 0  -0.5 0.4707048677450883 0  -0.5 0.4609875815766065 0  -0.5 0.4512940759251849 0  -0.5 0.4416242912883993 0  -0.5 0.4319781678689807 0  -0.5 0.4223556545383647 0  -0.5 0.4127566896324213 0  -0.5 0.4031812128200121 0  -0.5 0.3936291733057916 0  -0.5 0.3841005081172659 0  -0.5 0.3745951585781932 0  -0.5 0.3651130778999337 0  -0.5 0.3556541993788045 0  -0.5 0.3462184677228392 0  -0.5 0.3368058273705318 0  -0.5 0.3274162224888609 0  -0.5 0.3180495969712945 0  -0.5 0.3087058944357755 0  -0.5 0.299385058222682 0  -0.5 0.2900870313927414 0  -0.5 0.2808117567250807 0  -0.5 0.2715591844628491 0  -0.5 0.2623292564012653 0  -0.5 0.253121909553727 0  -0.5 0.2439371050851549 0  -0.5 0.2347747685524501 0  -0.5 0.2256348634421331 0  -0.5 0.2165173209784076 0  -0.5 0.207422087829958 0  -0.5 0.1983491207029381 0  -0.5 0.1892983550950482 0  -0.5 0.1802697378305253 0  -0.5 0.1712632154965152 0  -0.5 0.1622787344187354 0  -0.5 0.1533162406595534 0  -0.5 0.1443756800160514 0  -0.5 0.1354569980180493 0  -0.5 0.1265601399261414 0  -0.5 0.1176850622761093 0  -0.5 0.1088317009011999 0  -0.5 0.09167500000001694 0  -0.5 0.08335000000003931 0  -0.5 0.07502500000006167 0  -0.5 0.06670000000008947 0  -0.5 0.05837500000011001 0  -0.5 0.0500500000001328 0  -0.5 0.0417250000001127 0  -0.5 0.03340000000008944 0  -0.5 0.02507500000006573 0  -0.5 0.01675000000004653 0  -0.5 0.008425000000027341 
[...]
<PointData  Vectors="f_7"> 
<DataArray  type="Float64"  Name="f_7"  NumberOfComponents="3" format="ascii">-3.7650994778182250e-04 1.3528861468993943e-03 0.0000000000000000e+00  0.0000000000000000e+00 0.0000000000000000e+00 0.0000000000000000e+00  0.0000000000000000e+00 0.0000000000000000e+00 0.0000000000000000e+00  -7.4285741573749096e-04 1.3936512021239644e-03 0.0000000000000000e+00  -5.1625904604091222e-04 2.7999999999961675e-03 0.0000000000000000e+00  2.2400647130493487e-04 2.7999999999961675e-03 0.0000000000000000e+00  -1.5092951431182859e-04 2.9378256638513799e-03 0.0000000000000000e+00  -1.3593499620067519e-04 -7.6408659269874929e-05 0.0000000000000000e+00  -7.2207525227830716e-04 1.6161870280598477e-03 0.0000000000000000e+00  -7.0710924876585832e-04 1.1772918102695099e-03 0.0000000000000000e+00  -7.7347354026038021e-05 -7.5713321568384088e-05 0.0000000000000000e+00  -5.3400253644120712e-05 2.9374228724893627e-03 0.0000000000000000e+00  0.0000000000000000e+00 0.0000000000000000e+00 0.0000000000000000e+00  0.0000000000000000e+00 0.0000000000000000e+00 0.0000000000000000e+00  0.0000000000000000e+00 0.0000000000000000e+00 0.0000000000000000e+00  0.0000000000000000e+00 0.0000000000000000e+00 0.0000000000000000e+00  0.0000000000000000e+00 0.0000000000000000e+00 0.0000000000000000e+00  0.0000000000000000e+00 0.0000000000000000e+00 0.0000000000000000e+00  0.0000000000000000e+00 0.0000000000000000e+00 0.0000000000000000e+00  0.0000000000000000e+00 0.0000000000000000e+00 0.0000000000000000e+00  0.0000000000000000e+00 0.0000000000000000e+00 0.0000000000000000e+00  0.0000000000000000e+00 0.0000000000000000e+00 0.0000000000000000e+00  0.0000000000000000e+00 0.0000000000000000e+00 0.0000000000000000e+00  0.0000000000000000e+00 0.0000000000000000e+00 0.0000000000000000e+00  0.0000000000000000e+00 0.0000000000000000e+00 0.0000000000000000e+00  0.0000000000000000e+00 0.0000000000000000e+00 0.0000000000000000e+00  0.0000000000000000e+00 0.0000000000000000e+00 0.0000000000000000e+00  0.0000000000000000e+00 0.0000000000000000e+00 0.0000000000000000e+00  0.0000000000000000e+00 0.0000000000000000e+00 0.0000000000000000e+00  0.0000000000000000e+00 0.0000000000000000e+00 0.0000000000000000e+00  0.0000000000000000e+00 0.0000000000000000e+00 0.0000000000000000e+00  0.0000000000000000e+00 0.0000000000000000e+00 0.0000000000000000e+00  0.0000000000000000e+00 0.0000000000000000e+00 0.0000000000000000e+00  0.0000000000000000e+00 0.0000000000000000e+00 0.0000000000000000e+00  0.0000000000000000e+00 0.0000000000000000e+00 0.0000000000000000e+00  0.0000000000000000e+00 0.0000000000000000e+00 0.0000000000000000e+00  0.0000000000000000e+00 0.0000000000000000e+00 0.0000000000000000e+00  0.0000000000000000e+00 0.0000000000000000e+00 0.0000000000000000e+00  0.0000000000000000e+00 0.0000000000000000e+00 0.0000000000000000e+00  0.0000000000000000e+00 0.0000000000000000e+00 0.0000000000000000e+00  0.0000000000000000e+00 0.0000000000000000e+00 0.0000000000000000e+00  0.0000000000000000e+00 0.0000000000000000e+00 0.0000000000000000e+00  0.0000000000000000e+00 0.0000000000000000e+00 0.0000000000000000e+00  0.0000000000000000e+00 0.0000000000000000e+00 0.0000000000000000e+00  0.0000000000000000e+00 0.0000000000000000e+00 0.0000000000000000e+00  0.0000000000000000e+00 0.0000000000000000e+00 0.0000000000000000e+00  0.0000000000000000e+00 0.0000000000000000e+00 0.0000000000000000e+00  0.0000000000000000e+00 0.0000000000000000e+00 0.0000000000000000e+00  0.0000000000000000e+00 0.0000000000000000e+00 0.0000000000000000e+00  0.0000000000000000e+00 0.0000000000000000e+00 0.0000000000000000e+00  0.0000000000000000e+00 0.0000000000000000e+00 0.0000000000000000e+00  0.0000000000000000e+00 0.0000000000000000e+00 0.0000000000000000e+00  0.0000000000000000e+00 0.0000000000000000e+00 0.0000000000000000e+00  0.0000000000000000e+00 0.0000000000000000e+00 0.0000000000000000e+00  0.0000000000000000e+00 0.0000000000000000e+00 0.0000000000000000e+00  0.0000000000000000e+00 0.0000000000000000e+00 0.0000000000000000e+00  0.0000000000000000e+00 0.0000000000000000e+00 0.0000000000000000e+00  0.0000000000000000e+00 0.0000000000000000e+00 0.0000000000000000e+00  0.0000000000000000e+00 0.0000000000000000e+00 0.0000000000000000e+00  0.0000000000000000e+00 0.0000000000000000e+00 0.0000000000000000e+00  0.0000000000000000e+00 0.0000000000000000e+00 0.0000000000000000e+00  0.0000000000000000e+00 0.0000000000000000e+00 0.0000000000000000e+00  0.0000000000000000e+00 0.0000000000000000e+00 0.0000000000000000e+00  0.0000000000000000e+00 0.0000000000000000e+00 0.0000000000000000e+00  0.0000000000000000e+00 0.0000000000000000e+00 0.0000000000000000e+00  0.0000000000000000e+00 0.0000000000000000e+00 0.0000000000000000e+00  0.0000000000000000e+00 0.0000000000000000e+00 0.0000000000000000e+00  0.0000000000000000e+00 0.0000000000000000e+00 0.0000000000000000e+00  0.0000000000000000e+00 0.0000000000000000e+00 0.0000000000000000e+00  0.0000000000000000e+00 0.0000000000000000e+00 0.0000000000000000e+00  0.0000000000000000e+00 0.0000000000000000e+00 0.0000000000000000e+00  0.0000000000000000e+00 0.0000000000000000e+00 0.0000000000000000e+00  0.0000000000000000e+00 0.0000000000000000e+00 0.0000000000000000e+00  0.0000000000000000e+00 0.0000000000000000e+00 0.0000000000000000e+00  0.0000000000000000e+00 0.0000000000000000e+00 0.0000000000000000e+00  0.0000000000000000e+00 0.0000000000000000e+00 0.0000000000000000e+00  0.0000000000000000e+00 0.0000000000000000e+00 0.0000000000000000e+00  0.0000000000000000e+00 0.0000000000000000e+00 0.0000000000000000e+00  0.0000000000000000e+00 0.0000000000000000e+00 0.0000000000000000e+00  0.0000000000000000e+00 0.0000000000000000e+00 0.0000000000000000e+00  0.0000000000000000e+00 0.0000000000000000e+00 0.0000000000000000e+00  0.0000000000000000e+00 0.0000000000000000e+00 0.0000000000000000e+00  0.0000000000000000e+00 0.0000000000000000e+00 0.0000000000000000e+00  0.0000000000000000e+00 0.0000000000000000e+00 0.0000000000000000e+00  0.0000000000000000e+00 0.0000000000000000e+00 0.0000000000000000e+00  0.0000000000000000e+00 0.0000000000000000e+00 0.0000000000000000e+00  0.0000000000000000e+00 0.0000000000000000e+00 0.0000000000000000e+00  0.0000000000000000e+00 0.0000000000000000e+00 0.0000000000000000e+00  0.0000000000000000e+00 0.0000000000000000e+00 0.0000000000000000e+00  0.0000000000000000e+00 0.0000000000000000e+00 0.0000000000000000e+00  0.0000000000000000e+00 0.0000000000000000e+00 0.0000000000000000e+00  0.0000000000000000e+00 0.0000000000000000e+00 0.0000000000000000e+00  0.0000000000000000e+00 0.0000000000000000e+00 0.0000000000000000e+00  0.0000000000000000e+00 0.0000000000000000e+00 0.0000000000000000e+00  0.0000000000000000e+00 0.0000000000000000e+00 0.0000000000000000e+00  0.0000000000000000e+00 0.0000000000000000e+00 0.0000000000000000e+00  0.0000000000000000e+00 0.0000000000000000e+00 0.0000000000000000e+00  0.0000000000000000e+00 0.0000000000000000e+00 0.0000000000000000e+00  0.0000000000000000e+00 0.0000000000000000e+00 0.0000000000000000e+00  0.0000000000000000e+00 0.0000000000000000e+00 0.0000000000000000e+00  0.0000000000000000e+00 0.0000000000000000e+00 0.0000000000000000e+00  0.0000000000000000e+00 0.0000000000000000e+00 0.0000000000000000e+00  0.0000000000000000e+00 0.0000000000000000e+00 0.0000000000000000e+00  0.0000000000000000e+00 0.0000000000000000e+00 0.0000000000000000e+00  0.0000000000000000e+00 0.0000000000000000e+00 0.0000000000000000e+00  0.0000000000000000e+00 0.0000000000000000e+00 0.0000000000000000e+00  0.0000000000000000e+00 0.0000000000000000e+00 0.0000000000000000e+00  0.0000000000000000e+00 0.0000000000000000e+00 0.0000000000000000e+00  0.0000000000000000e+00 0.0000000000000000e+00 0.0000000000000000e+00  0.0000000000000000e+00 0.0000000000000000e+00 0.0000000000000000e+00  0.0000000000000000e+00 0.0000000000000000e+00 0.0000000000000000e+00  -6.7593557389033043e-05 7.0293188030248922e-05 0.0000000000000000e+00  -1.1150187186678656e-04 1.2104922314019649e-04 0.0000000000000000e+00  -1.4748030442057413e-04 1.6407317157639696e-04 0.0000000000000000e+00  -1.7915039066868232e-04 2.0277217702637361e-04 0.0000000000000000e+00  -2.0755155467026311e-04 2.3847857953457593e-04 0.0000000000000000e+00  -2.3358235600353403e-04 2.7219568721292673e-04 0.0000000000000000e+00  -2.5796916458075043e-04 3.0440619231772811e-04 0.0000000000000000e+00  -2.8037974562973355e-04 3.3557366483783245e-04 0.0000000000000000e+00  -3.0141396079108910e-04 3.6588735650868191e-04 0.0000000000000000e+00  -3.2152810032553755e-04 3.9535638369772694e-04 0.0000000000000000e+00  -3.4052107989959854e-04 4.2433084465637945e-04 0.0000000000000000e+00  -3.5871463257730303e-04 4.5262383645631646e-04 0.0000000000000000e+00  -3.7600167302247336e-04 4.8062936935123801e-04 0.0000000000000000e+00  -3.9273845115488359e-04 5.0802295956284477e-04 0.0000000000000000e+00  -4.0881007700867592e-04 5.3518379246352867e-04 0.0000000000000000e+00  -4.2446994777137930e-04 5.6190904160310039e-04 0.0000000000000000e+00  -4.3947655768057626e-04 5.8830451349682698e-04 0.0000000000000000e+00  -4.5405731413792596e-04 6.1431711369486534e-04 0.0000000000000000e+00  -4.6829931621617102e-04 6.4014322353674361e-04 0.0000000000000000e+00  -4.8205993234146468e-04 6.6557554477661971e-04 0.0000000000000000e+00  -4.9545731572176030e-04 6.9075039031790035e-04 0.0000000000000000e+00  -5.0850035524274370e-04 7.1566748955841097e-04 0.0000000000000000e+00  -5.2121994415895931e-04 7.4029022881822923e-04 0.0000000000000000e+00  -5.3360811096448248e-04 7.6465303792186228e-04 0.0000000000000000e+00  -5.4568080595742373e-04 7.8871068271863323e-04 0.0000000000000000e+00  -5.5743689092311970e-04 8.1248636059100775e-04 0.0000000000000000e+00  -5.6889435940044757e-04 8.3593746056408581e-04 0.0000000000000000e+00  -5.8012252688228430e-04 8.5923234622450342e-04 0.0000000000000000e+00  -5.9094369464163981e-04 8.8221116026542478e-04 0.0000000000000000e+00  -6.0145182327585040e-04 9.0491462809029434e-04 0.0000000000000000e+00  -6.1165881681735502e-04 9.2738657978508332e-04 0.0000000000000000e+00  -6.2158191908849450e-04 9.4955143701243869e-04 0.0000000000000000e+00  -6.3113528302393372e-04 9.7146099258421062e-04 0.0000000000000000e+00  -6.4039423049872088e-04 9.9306783970454508e-04 0.0000000000000000e+00  -6.4931628121651149e-04 1.0144947450322899e-03 0.0000000000000000e+00  -6.5783118019237241e-04 1.0356554182032681e-03 0.0000000000000000e+00  -6.6600956739141680e-04 1.0565783914335638e-03 0.0000000000000000e+00  -6.7385465994800758e-04 1.0771865901712337e-03 0.0000000000000000e+00  -6.8126358175240904e-04 1.0976420248050987e-03 0.0000000000000000e+00  -6.8834149487625475e-04 1.1178499067033940e-03 0.0000000000000000e+00  -6.9498346735332242e-04 1.1378903801636748e-03 0.0000000000000000e+00  -7.0124695044851740e-04 1.1576500222165618e-03 0.0000000000000000e+00  -7.1220683735999184e-04 1.1956744404641995e-03 0.0000000000000000e+00  -7.1696915789129772e-04 1.2139052997551239e-03 0.0000000000000000e+00  -7.2133423377246668e-04 1.2321243570622166e-03 0.0000000000000000e+00  -7.2532993046005897e-04 1.2501741174298900e-03 0.0000000000000000e+00  -7.2895656212952035e-04 1.2682491524451541e-03 0.0000000000000000e+00  -7.3213316078878359e-04 1.2862836008875420e-03 0.0000000000000000e+00  -7.3494858796865762e-04 1.3041600841855305e-03 0.0000000000000000e+00  -7.3734948862634706e-04 1.3220573243869268e-03 0.0000000000000000e+00  -7.3935354060050099e-04 1.3399620620174700e-03 0.0000000000000000e+00  -7.4087797607675103e-04 1.3578876967178034e-03 0.0000000000000000e+00  -7.4207383795468870e-04 1.3757326974072584e-03 0.0000000000000000e+00  -7.4317831104799405e-04 1.4116100028800018e-03 0.0000000000000000e+00  -7.4311890752901870e-04 1.4296014302278429e-03 0.0000000000000000e+00  -7.4267679016749605e-04 1.4477317897814835e-03 0.0000000000000000e+00  -7.4183231816351842e-04 1.4658611424538724e-03 0.0000000000000000e+00  -7.4061472971976325e-04 1.4841753477050268e-03 0.0000000000000000e+00  -7.3900904015994525e-04 1.5026225583586869e-03 0.0000000000000000e+00  -7.3700264760109336e-04 1.5211072842907414e-03 0.0000000000000000e+00  -7.3468822076583806e-04 1.5397985872742037e-03 0.0000000000000000e+00  -7.3205099971663276e-04 1.5586662960630415e-03 0.0000000000000000e+00  -7.2899575106509659e-04 1.5776931230494964e-03 0.0000000000000000e+00  -7.2568641571021128e-04 1.5968172305073070e-03 0.0000000000000000e+00  -7.1789523169911668e-04 1.6369684896525357e-03 0.0000000000000000e+00  -7.1340198828530852e-04 1.6579933677711503e-03 0.0000000000000000e+00  -7.0863064239384474e-04 1.6793862221603881e-03 0.0000000000000000e+00  -7.0355014408726951e-04 1.7010352322233413e-03 0.0000000000000000e+00  -6.9829998101657959e-04 1.7230396528236482e-03 0.0000000000000000e+00  -6.9271995618326219e-04 1.7453197061366099e-03 0.0000000000000000e+00  -6.8697373525991058e-04 1.7679920692185290e-03 0.0000000000000000e+00  -6.8101094512778898e-04 1.7910212390027725e-03 0.0000000000000000e+00  -6.7488099274032581e-04 1.8144127536999797e-03 0.0000000000000000e+00  -6.6855775909767314e-04 1.8381182004947748e-03 0.0000000000000000e+00  -6.6217962291650000e-04 1.8622090182508636e-03 0.0000000000000000e+00  -6.5565551368664573e-04 1.8866622986929411e-03 0.0000000000000000e+00  -6.4908397084742888e-04 1.9114882987750531e-03 0.0000000000000000e+00  -6.4246735928177911e-04 1.9366947689333856e-03 0.0000000000000000e+00  -6.3580792775774298e-04 1.9622762224636848e-03 0.0000000000000000e+00  -6.2910678425704347e-04 1.9882063905723741e-03 0.0000000000000000e+00  -6.2241905114175612e-04 2.0144669782498456e-03 0.0000000000000000e+00  -6.1580870516053134e-04 2.0411068543792475e-03 0.0000000000000000e+00  -6.0926530156267577e-04 2.0680884142438775e-03 0.0000000000000000e+00  -6.0279478235937653e-04 2.0954256601048889e-03 0.0000000000000000e+00  -5.9642661129622441e-04 2.1231245885819329e-03 0.0000000000000000e+00  -5.9014206396438662e-04 2.1511764062722826e-03 0.0000000000000000e+00  -5.8406605481361768e-04 2.1795190604471390e-03 0.0000000000000000e+00  -5.7809411163427704e-04 2.2082197358261591e-03 0.0000000000000000e+00  -5.7235278249110396e-04 2.2371895583617458e-03 0.0000000000000000e+00  -5.6677562255430991e-04 2.2665024184873295e-03 0.0000000000000000e+00  -5.6141973160193080e-04 2.2961131728074856e-03 0.0000000000000000e+00  -5.5631074740473583e-04 2.3259566686136485e-03 0.0000000000000000e+00  -5.5145747496350569e-04 2.3560735428581800e-03 0.0000000000000000e+00  -5.4683423248515185e-04 2.3865098320400889e-03 0.0000000000000000e+00  -5.4254426272932880e-04 2.4171088631997116e-03 0.0000000000000000e+00  -5.3848707157327165e-04 2.4480098011220798e-03 0.0000000000000000e+00  -5.3476417002932674e-04 2.4791215813047655e-03 0.0000000000000000e+00  -5.3134549086399834e-04 2.5105191327219421e-03 0.0000000000000000e+00  -5.2825730248664865e-04 2.5420287048732804e-03 0.0000000000000000e+00  -5.2549382980806073e-04 2.5737274048171941e-03 0.0000000000000000e+00  -5.2309257024225377e-04 2.6056508211030425e-03 0.0000000000000000e+00  -5.2104338795917597e-04 2.6376971210923389e-03 0.0000000000000000e+00  -5.1935965116877369e-04 2.6699149254620206e-03 0.0000000000000000e+00  -5.1800328520448043e-04 2.7022793080386538e-03 0.0000000000000000e+00  -5.1714224348958619e-04 2.7347649496667994e-03 0.0000000000000000e+00  -5.1651196290901564e-04 2.7673316670071158e-03 0.0000000000000000e+00  -5.0210645599754094e-04 2.7999999999961675e-03 0.0000000000000000e+00  -4.8801051646182750e-04 2.7999999999961675e-03 0.0000000000000000e+00  -4.7406573784422237e-04 2.7999999999961675e-03 0.0000000000000000e+00  -4.6021380987680555e-04 2.7999999999961675e-03 0.0000000000000000e+00  -4.4640953637547446e-04 2.7999999999961675e-03 0.0000000000000000e+00  -4.3275258204378888e-04 2.7999999999961675e-03 0.0000000000000000e+00  -4.1909935809359528e-04 2.7999999999961675e-03 0.0000000000000000e+00  -4.0546942781035294e-04 2.7999999999961675e-03 0.0000000000000000e+00  -3.9183520158683760e-04 2.7999999999961675e-03 0.0000000000000000e+00  -3.7828745151729999e-04 2.7999999999961675e-03 0.0000000000000000e+00  -3.6469514204632978e-04 2.7999999999961675e-03 0.0000000000000000e+00  -3.5109442356730193e-04 2.7999999999961675e-03 0.0000000000000000e+00  -3.3747918418531171e-04 2.7999999999961675e-03 0.0000000000000000e+00  -3.2385222238054585e-04 2.7999999999961675e-03 0.0000000000000000e+00  -3.1020486432419469e-04 2.7999999999961675e-03 0.0000000000000000e+00  -2.9650913584685398e-04 2.7999999999961675e-03 0.0000000000000000e+00  -2.8278576463166942e-04 2.7999999999961675e-03 0.0000000000000000e+00  -2.6903829178669288e-04 2.7999999999961675e-03 0.0000000000000000e+00  -2.5526398248340506e-04 2.7999999999961675e-03 0.0000000000000000e+00  -2.4146677302169258e-04 2.7999999999961675e-03 0.0000000000000000e+00  -2.2764608084483584e-04 2.7999999999961675e-03 0.0000000000000000e+00  -2.1380709253586118e-04 2.7999999999961675e-03 0.0000000000000000e+00  -1.9995606784038055e-04 2.7999999999961675e-03 0.0000000000000000e+00  -1.8611373192454182e-04 2.7999999999961675e-03 0.0000000000000000e+00  -1.7225828828421836e-04 2.7999999999961675e-03 0.0000000000000000e+00  -1.5842221088476613e-04 2.7999999999961675e-03 0.0000000000000000e+00  -1.4462205394793936e-04 2.7999999999961675e-03 0.0000000000000000e+00  -1.3084299686391283e-04 2.7999999999961675e-03 0.0000000000000000e+00  -1.1715058957960809e-04 2.7999999999961675e-03 0.0000000000000000e+00  -1.0351912292012251e-04 2.7999999999961675e-03 0.0000000000000000e+00  -8.9954628945608471e-05 2.7999999999961675e-03 0.0000000000000000e+00  -7.6505289507520388e-05 2.7999999999961675e-03 0.0000000000000000e+00  -6.3159846109948946e-05 2.7999999999961675e-03 0.0000000000000000e+00  -4.9902263610571757e-05 2.7999999999961675e-03 0.0000000000000000e+00  -3.6871272921313926e-05 2.7999999999961675e-03 0.0000000000000000e+00  -2.3964851647624316e-05 2.7999999999961675e-03 0.0000000000000000e+00  -1.1243180931701603e-05 2.7999999999961675e-03 0.0000000000000000e+00  1.2740013799138567e-06 2.7999999999961675e-03 0.0000000000000000e+00  1.3626612146778347e-05 2.7999999999961675e-03 0.0000000000000000e+00  2.5696734612423985e-05 2.7999999999961675e-03 0.0000000000000000e+00  3.7503035556587016e-05 2.7999999999961675e-03 0.0000000000000000e+00  4.9019505327111128e-05 2.7999999999961675e-03 0.0000000000000000e+00  6.0292115527057699e-05 2.7999999999961675e-03 0.0000000000000000e+00  7.1310234407397118e-05 2.7999999999961675e-03 0.0000000000000000e+00  8.1934395763528603e-05 2.7999999999961675e-03 0.0000000000000000e+00  9.2308913669096596e-05 2.7999999999961675e-03 0.0000000000000000e+00  1.0235826528869868e-04 2.7999999999961675e-03 0.0000000000000000e+00  1.1194183035430734e-04 2.7999999999961675e-03 0.0000000000000000e+00  1.2123570426096240e-04 2.7999999999961675e-03 0.0000000000000000e+00  1.3022823170035712e-04 2.7999999999961675e-03 0.0000000000000000e+00  1.3883093913666069e-04 2.7999999999961675e-03 0.0000000000000000e+00  1.4700232620583245e-04 2.7999999999961675e-03 0.0000000000000000e+00  1.5480685319622134e-04 2.7999999999961675e-03 0.0000000000000000e+00  1.6228747784394565e-04 2.7999999999961675e-03 0.0000000000000000e+00  1.6934391515990076e-04 2.7999999999961675e-03 0.0000000000000000e+00  1.7601134703066568e-04 2.7999999999961675e-03 0.0000000000000000e+00  1.8233480773743486e-04 2.7999999999961675e-03 0.0000000000000000e+00  1.8832279373335464e-04 2.7999999999961675e-03 0.0000000000000000e+00  1.9383545670975650e-04 2.7999999999961675e-03 0.0000000000000000e+00  1.9906375887246273e-04 2.7999999999961675e-03 0.0000000000000000e+00  2.0391295745596707e-04 2.7999999999961675e-03 0.0000000000000000e+00  2.0841675706001589e-04 2.7999999999961675e-03 0.0000000000000000e+00  2.1254458573727647e-04 2.7999999999961675e-03 0.0000000000000000e+00  2.1641267545938084e-04 2.7999999999961675e-03 0.0000000000000000e+00  2.1998307982649625e-04 2.7999999999961675e-03 0.0000000000000000e+00  