<?xml version="1.0"?>
<VTKFile type="UnstructuredGrid"  version="0.1"  >
<UnstructuredGrid>
<Piece  NumberOfPoints="15540" NumberOfCells="30546">
<Points>
<DataArray  type="Float64"  NumberOfComponents="3"  format="ascii">0 0 0  -0.5 -0.5 0  0.5 -0.5 0  0.5 0 0  0.5 0.5 0  -0.5 0.5 0  -0.5 0.0001 0  -0.5 -0.0001 0  0.5 0.1 0  0.5 -0.1 0  -0.5 -0.1 0  -0.5 0.1 0  -0.4900000000000277 -0.5 0  -0.4800000000000555 -0.5 0  -0.4700000000000832 -0.5 0  -0.4600000000001109 -0.5 0  -0.4500000000001387 -0.5 0  -0.4400000000001664 -0.5 0  -0.4300000000001942 -0.5 0  -0.4200000000002219 -0.5 0  -0.4100000000002497 -0.5 0  -0.4000000000002774 -0.5 0  -0.3900000000003052 -0.5 0  -0.3800000000003328 -0.5 0  -0.3700000000003606 -0.5 0  -0.3600000000003883 -0.5 0  -0.3500000000004161 -0.5 0  -0.3400000000004438 -0.5 0  -0.3300000000004716 -0.5 0  -0.3200000000004993 -0.5 0  -0.3100000000005271 -0.5 0  -0.3000000000005548 -0.5 0  -0.2900000000005825 -0.5 0  -0.2800000000006103 -0.5 0  -0.2700000000006381 -0.5 0  -0.2600000000006658 -0.5 0  -0.2500000000006935 -0.5 0  -0.2400000000007212 -0.5 0  -0.230000000000749 -0.5 0  -0.2200000000007767 -0.5 0  -0.2100000000008044 -0.5 0  -0.2000000000008322 -0.5 0  -0.19000000000086 -0.5 0  -0.1800000000008877 -0.5 0  -0.1700000000009154 -0.5 0  -0.1600000000009431 -0.5 0  -0.1500000000009709 -0.5 0  -0.1400000000009986 -0.5 0  -0.1300000000010264 -0.5 0  -0.1200000000010541 -0.5 0  -0.1100000000010818 -0.5 0  -0.1000000000011096 -0.5 0  -0.09000000000113734 -0.5 0  -0.08000000000116503 -0.5 0  -0.07000000000119283 -0.5 0  -0.06000000000122058 -0.5 0  -0.05000000000124827 -0.5 0  -0.04000000000127607 -0.5 0  -0.03000000000130376 -0.5 0  -0.02000000000133151 -0.5 0  -0.01000000000135925 -0.5 0  -1.376121439022882e-12 -0.5 0  0.009999999998640763 -0.5 0  0.01999999999866864 -0.5 0  0.02999999999869629 -0.5 0  0.03999999999872406 -0.5 0  0.04999999999875182 -0.5 0  0.05999999999877947 -0.5 0  0.06999999999880724 -0.5 0  0.079999999998835 -0.5 0  0.08999999999886266 -0.5 0  0.09999999999889042 -0.5 0  0.1099999999989182 -0.5 0  0.1199999999989459 -0.5 0  0.1299999999989737 -0.5 0  0.1399999999990014 -0.5 0  0.1499999999990291 -0.5 0  0.1599999999990568 -0.5 0  0.1699999999990847 -0.5 0  0.1799999999991124 -0.5 0  0.1899999999991401 -0.5 0  0.1999999999991678 -0.5 0  0.2099999999991955 -0.5 0  0.2199999999992234 -0.5 0  0.2299999999992511 -0.5 0  0.2399999999992788 -0.5 0  0.2499999999993066 -0.5 0  0.2599999999993342 -0.5 0  0.269999999999362 -0.5 0  0.2799999999993897 -0.5 0  0.2899999999994175 -0.5 0  0.2999999999994452 -0.5 0  0.3099999999994729 -0.5 0  0.3199999999995007 -0.5 0  0.3299999999995284 -0.5 0  0.3399999999995562 -0.5 0  0.3499999999995839 -0.5 0  0.3599999999996116 -0.5 0  0.3699999999996393 -0.5 0  0.379999999999667 -0.5 0  0.3899999999996949 -0.5 0  0.3999999999997226 -0.5 0  0.4099999999997503 -0.5 0  0.419999999999778 -0.5 0  0.4299999999998058 -0.5 0  0.4399999999998336 -0.5 0  0.4499999999998613 -0.5 0  0.4599999999998891 -0.5 0  0.4699999999999167 -0.5 0  0.4799999999999445 -0.5 0  0.4899999999999722 -0.5 0  0.5 -0.4902110204681464 0  0.5 -0.4804459958734807 0  0.5 -0.4707048677450883 0  0.5 -0.4609875815766065 0  0.5 -0.4512940759251849 0  0.5 -0.4416242912883993 0  0.5 -0.4319781678689807 0  0.5 -0.4223556545383647 0  0.5 -0.4127566896324213 0  0.5 -0.4031812128200121 0  0.5 -0.3936291733057916 0  0.5 -0.3841005081172659 0  0.5 -0.3745951585781932 0  0.5 -0.3651130778999337 0  0.5 -0.3556541993788045 0  0.5 -0.3462184677228392 0  0.5 -0.3368058273705318 0  0.5 -0.3274162224888609 0  0.5 -0.3180495969712945 0  0.5 -0.3087058944357755 0  0.5 -0.299385058222682 0  0.5 -0.2900870313927414 0  0.5 -0.2808117567250807 0  0.5 -0.2715591844628491 0  0.5 -0.2623292564012653 0  0.5 -0.253121909553727 0  0.5 -0.2439371050851549 0  0.5 -0.2347747685524501 0  0.5 -0.2256348634421331 0  0.5 -0.2165173209784076 0  0.5 -0.207422087829958 0  0.5 -0.1983491207029381 0  0.5 -0.1892983550950482 0  0.5 -0.1802697378305253 0  0.5 -0.1712632154965152 0  0.5 -0.1622787344187354 0  0.5 -0.1533162406595534 0  0.5 -0.1443756800160514 0  0.5 -0.1354569980180493 0  0.5 -0.1265601399261414 0  0.5 -0.1176850622761093 0  0.5 -0.1088317009011999 0  0.5 -0.09166666666668973 0  0.5 -0.08333333333337943 0  0.5 -0.07500000000006915 0  0.5 -0.06666666666675886 0  0.5 -0.05833333333344858 0  0.5 -0.05000000000013693 0  0.5 -0.04166666666678191 0  0.5 -0.03333333333342643 0  0.5 -0.02500000000006916 0  0.5 -0.01666666666671188 0  0.5 -0.00833333333335548 0  0.5 0.008333333333318314 0  0.5 0.01666666666663358 0  0.5 0.02499999999994162 0  0.5 0.03333333333325101 0  0.5 0.04166666666655769 0  0.5 0.04999999999986843 0  0.5 0.05833333333322258 0  0.5 0.06666666666657715 0  0.5 0.07499999999993352 0  0.5 0.08333333333328992 0  0.5 0.09166666666664541 0  0.5 0.1088317009011616 0  0.5 0.1176850622760307 0  0.5 0.1265601399260203 0  0.5 0.1354569980178909 0  0.5 0.1443756800158549 0  0.5 0.153316240659315 0  0.5 0.1622787344184454 0  0.5 0.1712632154961752 0  0.5 0.1802697378301332 0  0.5 0.1892983550946039 0  0.5 0.1983491207024433 0  0.5 0.2074220878294123 0  0.5 0.216517320977811 0  0.5 0.2256348634414833 0  0.5 0.2347747685517479 0  0.5 0.2439371050844009 0  0.5 0.2531219095529224 0  0.5 0.2623292564004089 0  0.5 0.2715591844619371 0  0.5 0.2808117567241139 0  0.5 0.290087031391723 0  0.5 0.2993850582216101 0  0.5 0.3087058944347426 0  0.5 0.3180495969703129 0  0.5 0.3274162224879299 0  0.5 0.3368058273696494 0  0.5 0.3462184677220051 0  0.5 0.3556541993780186 0  0.5 0.3651130778991989 0  0.5 0.3745951585775107 0  0.5 0.3841005081166359 0  0.5 0.3936291733052134 0  0.5 0.4031812128194852 0  0.5 0.412756689631945 0  0.5 0.4223556545379392 0  0.5 0.431978167868607 0  0.5 0.4416242912880781 0  0.5 0.4512940759249164 0  0.5 0.4609875815763912 0  0.5 0.4707048677449264 0  0.5 0.4804459958733726 0  0.5 0.4902110204680924 0  0.4900000000000277 0.5 0  0.4800000000000555 0.5 0  0.4700000000000832 0.5 0  0.4600000000001109 0.5 0  0.4500000000001387 0.5 0  0.4400000000001664 0.5 0  0.4300000000001942 0.5 0  0.4200000000002219 0.5 0  0.4100000000002497 0.5 0  0.4000000000002774 0.5 0  0.3900000000003052 0.5 0  0.3800000000003328 0.5 0  0.3700000000003606 0.5 0  0.3600000000003883 0.5 0  0.3500000000004161 0.5 0  0.3400000000004438 0.5 0  0.3300000000004716 0.5 0  0.3200000000004993 0.5 0  0.3100000000005271 0.5 0  0.3000000000005548 0.5 0  0.2900000000005825 0.5 0  0.2800000000006103 0.5 0  0.2700000000006381 0.5 0  0.2600000000006658 0.5 0  0.2500000000006935 0.5 0  0.2400000000007212 0.5 0  0.230000000000749 0.5 0  0.2200000000007767 0.5 0  0.2100000000008044 0.5 0  0.2000000000008322 0.5 0  0.19000000000086 0.5 0  0.1800000000008877 0.5 0  0.1700000000009154 0.5 0  0.1600000000009431 0.5 0  0.1500000000009709 0.5 0  0.1400000000009986 0.5 0  0.1300000000010264 0.5 0  0.1200000000010541 0.5 0  0.1100000000010818 0.5 0  0.1000000000011096 0.5 0  0.09000000000113734 0.5 0  0.08000000000116503 0.5 0  0.07000000000119283 0.5 0  0.06000000000122058 0.5 0  0.05000000000124827 0.5 0  0.04000000000127607 0.5 0  0.03000000000130376 0.5 0  0.02000000000133151 0.5 0  0.01000000000135925 0.5 0  1.376121439022882e-12 0.5 0  -0.009999999998640763 0.5 0  -0.01999999999866864 0.5 0  -0.02999999999869629 0.5 0  -0.03999999999872406 0.5 0  -0.04999999999875182 0.5 0  -0.05999999999877947 0.5 0  -0.06999999999880724 0.5 0  -0.079999999998835 0.5 0  -0.08999999999886266 0.5 0  -0.09999999999889042 0.5 0  -0.1099999999989182 0.5 0  -0.1199999999989459 0.5 0  -0.1299999999989737 0.5 0  -0.1399999999990014 0.5 0  -0.1499999999990291 0.5 0  -0.1599999999990568 0.5 0  -0.1699999999990847 0.5 0  -0.1799999999991124 0.5 0  -0.1899999999991401 0.5 0  -0.1999999999991678 0.5 0  -0.2099999999991955 0.5 0  -0.2199999999992234 0.5 0  -0.2299999999992511 0.5 0  -0.2399999999992788 0.5 0  -0.2499999999993066 0.5 0  -0.2599999999993342 0.5 0  -0.269999999999362 0.5 0  -0.2799999999993897 0.5 0  -0.2899999999994175 0.5 0  -0.2999999999994452 0.5 0  -0.3099999999994729 0.5 0  -0.3199999999995007 0.5 0  -0.3299999999995284 0.5 0  -0.3399999999995562 0.5 0  -0.3499999999995839 0.5 0  -0.3599999999996116 0.5 0  -0.3699999999996393 0.5 0  -0.379999999999667 0.5 0  -0.3899999999996949 0.5 0  -0.3999999999997226 0.5 0  -0.4099999999997503 0.5 0  -0.419999999999778 0.5 0  -0.4299999999998058 0.5 0  -0.4399999999998336 0.5 0  -0.4499999999998613 0.5 0  -0.4599999999998891 0.5 0  -0.4699999999999167 0.5 0  -0.4799999999999445 0.5 0  -0.4899999999999722 0.5 0  -0.5 0.4902110204681464 0  -0.5 0.4804459958734807 0  -0.5 0.4707048677450883 0  -0.5 0.4609875815766065 0  -0.5 0.4512940759251849 0  -0.5 0.4416242912883993 0  -0.5 0.4319781678689807 0  -0.5 0.4223556545383647 0  -0.5 0.4127566896324213 0  -0.5 0.4031812128200121 0  -0.5 0.3936291733057916 0  -0.5 0.3841005081172659 0  -0.5 0.3745951585781932 0  -0.5 0.3651130778999337 0  -0.5 0.3556541993788045 0  -0.5 0.3462184677228392 0  -0.5 0.3368058273705318 0  -0.5 0.3274162224888609 0  -0.5 0.3180495969712945 0  -0.5 0.3087058944357755 0  -0.5 0.299385058222682 0  -0.5 0.2900870313927414 0  -0.5 0.2808117567250807 0  -0.5 0.2715591844628491 0  -0.5 0.2623292564012653 0  -0.5 0.253121909553727 0  -0.5 0.2439371050851549 0  -0.5 0.2347747685524501 0  -0.5 0.2256348634421331 0  -0.5 0.2165173209784076 0  -0.5 0.207422087829958 0  -0.5 0.1983491207029381 0  -0.5 0.1892983550950482 0  -0.5 0.1802697378305253 0  -0.5 0.1712632154965152 0  -0.5 0.1622787344187354 0  -0.5 0.1533162406595534 0  -0.5 0.1443756800160514 0  -0.5 0.1354569980180493 0  -0.5 0.1265601399261414 0  -0.5 0.1176850622761093 0  -0.5 0.1088317009011999 0  -0.5 0.09167500000001694 0  -0.5 0.08335000000003931 0  -0.5 0.07502500000006167 0  -0.5 0.06670000000008947 0  -0.5 0.05837500000011001 0  -0.5 0.0500500000001328 0  -0.5 0.0417250000001127 0  -0.5 0.03340000000008944 0  -0.5 0.02507500000006573 0  -0.5 0.01675000000004653 0  -0.5 0.008425000000027341 
[...]
<PointData  Vectors="f_7"> 
<DataArray  type="Float64"  Name="f_7"  NumberOfComponents="3" format="ascii">-1.5781180639108704e-06 1.3692722954979946e-04 0.0000000000000000e+00  0.0000000000000000e+00 0.0000000000000000e+00 0.0000000000000000e+00  0.0000000000000000e+00 0.0000000000000000e+00 0.0000000000000000e+00  -5.3468914561460591e-05 8.0576266481475377e-05 0.0000000000000000e+00  5.5292420450644443e-04 6.3000002788224010e-03 0.0000000000000000e+00  5.7006839684778225e-04 6.3000002788224010e-03 0.0000000000000000e+00  5.6156781710542619e-04 6.2981952677760187e-03 0.0000000000000000e+00  -4.3475858909930765e-07 -3.2384027840639097e-07 0.0000000000000000e+00  5.5371167749736596e-04 6.2861512385850010e-03 0.0000000000000000e+00  -5.8704163937595330e-06 1.0017313982246513e-05 0.0000000000000000e+00  -9.3146908175055655e-08 -3.1904677152699857e-07 0.0000000000000000e+00  5.6388302259436371e-04 6.2982882274874395e-03 0.0000000000000000e+00  0.0000000000000000e+00 0.0000000000000000e+00 0.0000000000000000e+00  0.0000000000000000e+00 0.0000000000000000e+00 0.0000000000000000e+00  0.0000000000000000e+00 0.0000000000000000e+00 0.0000000000000000e+00  0.0000000000000000e+00 0.0000000000000000e+00 0.0000000000000000e+00  0.0000000000000000e+00 0.0000000000000000e+00 0.0000000000000000e+00  0.0000000000000000e+00 0.0000000000000000e+00 0.0000000000000000e+00  0.0000000000000000e+00 0.0000000000000000e+00 0.0000000000000000e+00  0.0000000000000000e+00 0.0000000000000000e+00 0.0000000000000000e+00  0.0000000000000000e+00 0.0000000000000000e+00 0.0000000000000000e+00  0.0000000000000000e+00 0.0000000000000000e+00 0.0000000000000000e+00  0.0000000000000000e+00 0.0000000000000000e+00 0.0000000000000000e+00  0.0000000000000000e+00 0.0000000000000000e+00 0.0000000000000000e+00  0.0000000000000000e+00 0.0000000000000000e+00 0.0000000000000000e+00  0.0000000000000000e+00 0.0000000000000000e+00 0.0000000000000000e+00  0.0000000000000000e+00 0.0000000000000000e+00 0.0000000000000000e+00  0.0000000000000000e+00 0.0000000000000000e+00 0.0000000000000000e+00  0.0000000000000000e+00 0.0000000000000000e+00 0.0000000000000000e+00  0.0000000000000000e+00 0.0000000000000000e+00 0.0000000000000000e+00  0.0000000000000000e+00 0.0000000000000000e+00 0.0000000000000000e+00  0.0000000000000000e+00 0.0000000000000000e+00 0.0000000000000000e+00  0.0000000000000000e+00 0.0000000000000000e+00 0.0000000000000000e+00  0.0000000000000000e+00 0.0000000000000000e+00 0.0000000000000000e+00  0.0000000000000000e+00 0.0000000000000000e+00 0.0000000000000000e+00  0.0000000000000000e+00 0.0000000000000000e+00 0.0000000000000000e+00  0.0000000000000000e+00 0.0000000000000000e+00 0.0000000000000000e+00  0.0000000000000000e+00 0.0000000000000000e+00 0.0000000000000000e+00  0.0000000000000000e+00 0.0000000000000000e+00 0.0000000000000000e+00  0.0000000000000000e+00 0.0000000000000000e+00 0.0000000000000000e+00  0.0000000000000000e+00 0.0000000000000000e+00 0.0000000000000000e+00  0.0000000000000000e+00 0.0000000000000000e+00 0.0000000000000000e+00  0.0000000000000000e+00 0.0000000000000000e+00 0.0000000000000000e+00  0.0000000000000000e+00 0.0000000000000000e+00 0.0000000000000000e+00  0.0000000000000000e+00 0.0000000000000000e+00 0.0000000000000000e+00  0.0000000000000000e+00 0.0000000000000000e+00 0.0000000000000000e+00  0.0000000000000000e+00 0.0000000000000000e+00 0.0000000000000000e+00  0.0000000000000000e+00 0.0000000000000000e+00 0.0000000000000000e+00  0.0000000000000000e+00 0.0000000000000000e+00 0.0000000000000000e+00  0.0000000000000000e+00 0.0000000000000000e+00 0.0000000000000000e+00  0.0000000000000000e+00 0.0000000000000000e+00 0.0000000000000000e+00  0.0000000000000000e+00 0.0000000000000000e+00 0.0000000000000000e+00  0.0000000000000000e+00 0.0000000000000000e+00 0.0000000000000000e+00  0.0000000000000000e+00 0.0000000000000000e+00 0.0000000000000000e+00  0.0000000000000000e+00 0.0000000000000000e+00 0.0000000000000000e+00  0.0000000000000000e+00 0.0000000000000000e+00 0.0000000000000000e+00  0.0000000000000000e+00 0.0000000000000000e+00 0.0000000000000000e+00  0.0000000000000000e+00 0.0000000000000000e+00 0.0000000000000000e+00  0.0000000000000000e+00 0.0000000000000000e+00 0.0000000000000000e+00  0.0000000000000000e+00 0.0000000000000000e+00 0.0000000000000000e+00  0.0000000000000000e+00 0.0000000000000000e+00 0.0000000000000000e+00  0.0000000000000000e+00 0.0000000000000000e+00 0.0000000000000000e+00  0.0000000000000000e+00 0.0000000000000000e+00 0.0000000000000000e+00  0.0000000000000000e+00 0.0000000000000000e+00 0.0000000000000000e+00  0.0000000000000000e+00 0.0000000000000000e+00 0.0000000000000000e+00  0.0000000000000000e+00 0.0000000000000000e+00 0.0000000000000000e+00  0.0000000000000000e+00 0.0000000000000000e+00 0.0000000000000000e+00  0.0000000000000000e+00 0.0000000000000000e+00 0.0000000000000000e+00  0.0000000000000000e+00 0.0000000000000000e+00 0.0000000000000000e+00  0.0000000000000000e+00 0.0000000000000000e+00 0.0000000000000000e+00  0.0000000000000000e+00 0.0000000000000000e+00 0.0000000000000000e+00  0.0000000000000000e+00 0.0000000000000000e+00 0.0000000000000000e+00  0.0000000000000000e+00 0.0000000000000000e+00 0.0000000000000000e+00  0.0000000000000000e+00 0.0000000000000000e+00 0.0000000000000000e+00  0.0000000000000000e+00 0.0000000000000000e+00 0.0000000000000000e+00  0.0000000000000000e+00 0.0000000000000000e+00 0.0000000000000000e+00  0.0000000000000000e+00 0.0000000000000000e+00 0.0000000000000000e+00  0.0000000000000000e+00 0.0000000000000000e+00 0.0000000000000000e+00  0.0000000000000000e+00 0.0000000000000000e+00 0.0000000000000000e+00  0.0000000000000000e+00 0.0000000000000000e+00 0.0000000000000000e+00  0.0000000000000000e+00 0.0000000000000000e+00 0.0000000000000000e+00  0.0000000000000000e+00 0.0000000000000000e+00 0.0000000000000000e+00  0.0000000000000000e+00 0.0000000000000000e+00 0.0000000000000000e+00  0.0000000000000000e+00 0.0000000000000000e+00 0.0000000000000000e+00  0.0000000000000000e+00 0.0000000000000000e+00 0.0000000000000000e+00  0.0000000000000000e+00 0.0000000000000000e+00 0.0000000000000000e+00  0.0000000000000000e+00 0.0000000000000000e+00 0.0000000000000000e+00  0.0000000000000000e+00 0.0000000000000000e+00 0.0000000000000000e+00  0.0000000000000000e+00 0.0000000000000000e+00 0.0000000000000000e+00  0.0000000000000000e+00 0.0000000000000000e+00 0.0000000000000000e+00  0.0000000000000000e+00 0.0000000000000000e+00 0.0000000000000000e+00  0.0000000000000000e+00 0.0000000000000000e+00 0.0000000000000000e+00  0.0000000000000000e+00 0.0000000000000000e+00 0.0000000000000000e+00  0.0000000000000000e+00 0.0000000000000000e+00 0.0000000000000000e+00  0.0000000000000000e+00 0.0000000000000000e+00 0.0000000000000000e+00  0.0000000000000000e+00 0.0000000000000000e+00 0.0000000000000000e+00  0.0000000000000000e+00 0.0000000000000000e+00 0.0000000000000000e+00  0.0000000000000000e+00 0.0000000000000000e+00 0.0000000000000000e+00  0.0000000000000000e+00 0.0000000000000000e+00 0.0000000000000000e+00  0.0000000000000000e+00 0.0000000000000000e+00 0.0000000000000000e+00  0.0000000000000000e+00 0.0000000000000000e+00 0.0000000000000000e+00  0.0000000000000000e+00 0.0000000000000000e+00 0.0000000000000000e+00  0.0000000000000000e+00 0.0000000000000000e+00 0.0000000000000000e+00  0.0000000000000000e+00 0.0000000000000000e+00 0.0000000000000000e+00  0.0000000000000000e+00 0.0000000000000000e+00 0.0000000000000000e+00  0.0000000000000000e+00 0.0000000000000000e+00 0.0000000000000000e+00  0.0000000000000000e+00 0.0000000000000000e+00 0.0000000000000000e+00  0.0000000000000000e+00 0.0000000000000000e+00 0.0000000000000000e+00  0.0000000000000000e+00 0.0000000000000000e+00 0.0000000000000000e+00  0.0000000000000000e+00 0.0000000000000000e+00 0.0000000000000000e+00  0.0000000000000000e+00 0.0000000000000000e+00 0.0000000000000000e+00  -5.4005688076304782e-07 5.6834640789602811e-07 0.0000000000000000e+00  -8.7222531174876792e-07 9.7424542154897163e-07 0.0000000000000000e+00  -1.1355608406405589e-06 1.3170445721306821e-06 0.0000000000000000e+00  -1.3592727502123394e-06 1.6215048953717133e-06 0.0000000000000000e+00  -1.5561468723466658e-06 1.9017115146116853e-06 0.0000000000000000e+00  -1.7341962684922560e-06 2.1656252823439522e-06 0.0000000000000000e+00  -1.8995156703718444e-06 2.4173926699138871e-06 0.0000000000000000e+00  -2.0507604782811437e-06 2.6603756318493527e-06 0.0000000000000000e+00  -2.1925078456427436e-06 2.8966313554379786e-06 0.0000000000000000e+00  -2.3279292385934666e-06 3.1265254998452054e-06 0.0000000000000000e+00  -2.4563863003759731e-06 3.3528170429928667e-06 0.0000000000000000e+00  -2.5797521830986367e-06 3.5744445042371342e-06 0.0000000000000000e+00  -2.6981692837398112e-06 3.7939809978452779e-06 0.0000000000000000e+00  -2.8133058825427251e-06 4.0097147397487315e-06 0.0000000000000000e+00  -2.9250412292490331e-06 4.2239831807273007e-06 0.0000000000000000e+00  -3.0346534408441861e-06 4.4359601759788309e-06 0.0000000000000000e+00  -3.1413373652469548e-06 4.6460725224955561e-06 0.0000000000000000e+00  -3.2461765410094701e-06 4.8545229242892283e-06 0.0000000000000000e+00  -3.3496806432514414e-06 5.0620867663780781e-06 0.0000000000000000e+00  -3.4515028888059838e-06 5.2680258667364560e-06 0.0000000000000000e+00  -3.5521668019148623e-06 5.4729586441365547e-06 0.0000000000000000e+00  -3.6518478518718654e-06 5.6768322851176382e-06 0.0000000000000000e+00  -3.7507982289085166e-06 5.8796971760880522e-06 0.0000000000000000e+00  -3.8491088814117161e-06 6.0816701913270400e-06 0.0000000000000000e+00  -3.9469560444245158e-06 6.2828378667624120e-06 0.0000000000000000e+00  -4.0444972545507387e-06 6.4833512528451884e-06 0.0000000000000000e+00  -4.1419020649127771e-06 6.6832283882942447e-06 0.0000000000000000e+00  -4.2390600992998429e-06 6.8825393460942332e-06 0.0000000000000000e+00  -4.3363128901430802e-06 7.0815417014793201e-06 0.0000000000000000e+00  -4.4337912715031088e-06 7.2802435696291034e-06 0.0000000000000000e+00  -4.5318028886600342e-06 7.4786570043413919e-06 0.0000000000000000e+00  -4.6303460297951382e-06 7.6771348137133099e-06 0.0000000000000000e+00  -4.7297823651900059e-06 7.8759053713186991e-06 0.0000000000000000e+00  -4.8302094704982178e-06 8.0754426438900525e-06 0.0000000000000000e+00  -4.9317039077613636e-06 8.2755055971573072e-06 0.0000000000000000e+00  -5.0354002871704239e-06 8.4772603160520753e-06 0.0000000000000000e+00  -5.1411552315341067e-06 8.6810236995743943e-06 0.0000000000000000e+00  -5.2493352190465206e-06 8.8884051558360660e-06 0.0000000000000000e+00  -5.3615272881629633e-06 9.0987457545242249e-06 0.0000000000000000e+00  -5.4775631351338122e-06 9.3147412692484988e-06 0.0000000000000000e+00  -5.6004166648122649e-06 9.5380692559066812e-06 0.0000000000000000e+00  -5.7309167157524382e-06 9.7725980847977014e-06 0.0000000000000000e+00  -6.0187603666082394e-06 1.0268519914060189e-05 0.0000000000000000e+00  -6.1833091308275279e-06 1.0545761856656249e-05 0.0000000000000000e+00  -6.3722106510161524e-06 1.0847502549191439e-05 0.0000000000000000e+00  -6.5987587080876730e-06 1.1209333635532517e-05 0.0000000000000000e+00  -6.8593595855075516e-06 1.1617647608123922e-05 0.0000000000000000e+00  -7.2170886043672757e-06 1.2122105524199913e-05 0.0000000000000000e+00  -7.6825886655544718e-06 1.2853306725955482e-05 0.0000000000000000e+00  -8.3939980535362320e-06 1.3872254772359961e-05 0.0000000000000000e+00  -9.4897308714716828e-06 1.5434269386784589e-05 0.0000000000000000e+00  -1.1879573669767749e-05 1.8854006899308594e-05 0.0000000000000000e+00  -1.9532440767870504e-05 2.9785576488936985e-05 0.0000000000000000e+00  -1.1758496869168566e-03 4.1355009040158512e-03 0.0000000000000000e+00  5.0159188155488585e-04 6.2074805710975048e-03 0.0000000000000000e+00  5.4054596571442555e-04 6.2650196980791970e-03 0.0000000000000000e+00  5.4827505106350009e-04 6.2767701316314159e-03 0.0000000000000000e+00  5.5080680778856221e-04 6.2805465155700586e-03 0.0000000000000000e+00  5.5192414554061588e-04 6.2822827965269782e-03 0.0000000000000000e+00  5.5257353921937433e-04 6.2834828542464244e-03 0.0000000000000000e+00  5.5299669275354847e-04 6.2842689590017903e-03 0.0000000000000000e+00  5.5327517249415643e-04 6.2848674362317569e-03 0.0000000000000000e+00  5.5345559035851284e-04 6.2853427296244314e-03 0.0000000000000000e+00  5.5360725307134861e-04 6.2857737611493976e-03 0.0000000000000000e+00  5.5378536435290765e-04 6.2865105040185451e-03 0.0000000000000000e+00  5.5383968522398777e-04 6.2868533661042895e-03 0.0000000000000000e+00  5.5387774124977611e-04 6.2871769038616533e-03 0.0000000000000000e+00  5.5390069630334383e-04 6.2874882380255298e-03 0.0000000000000000e+00  5.5391251259970979e-04 6.2877936747805499e-03 0.0000000000000000e+00  5.5391611263989199e-04 6.2880977746864819e-03 0.0000000000000000e+00  5.5391188668786129e-04 6.2883984867006812e-03 0.0000000000000000e+00  5.5390199454349268e-04 6.2886982604952301e-03 0.0000000000000000e+00  5.5388553159074359e-04 6.2889960731352728e-03 0.0000000000000000e+00  5.5386657404307542e-04 6.2892959060920454e-03 0.0000000000000000e+00  5.5384228182970370e-04 6.2895972104350393e-03 0.0000000000000000e+00  5.5381460554270996e-04 6.2898995934685953e-03 0.0000000000000000e+00  5.5378647357047040e-04 6.2902017068065044e-03 0.0000000000000000e+00  5.5375748818201802e-04 6.2905081711163817e-03 0.0000000000000000e+00  5.5372592270747025e-04 6.2908161755622525e-03 0.0000000000000000e+00  5.5369264816255005e-04 6.2911247154286585e-03 0.0000000000000000e+00  5.5365947072770971e-04 6.2914365221453054e-03 0.0000000000000000e+00  5.5362578274896544e-04 6.2917511949391507e-03 0.0000000000000000e+00  5.5358994229729320e-04 6.2920696124913649e-03 0.0000000000000000e+00  5.5354827665395978e-04 6.2923918119570047e-03 0.0000000000000000e+00  5.5350367648496115e-04 6.2927162470995937e-03 0.0000000000000000e+00  5.5345762633364688e-04 6.2930425023332770e-03 0.0000000000000000e+00  5.5340843471456580e-04 6.2933677627283711e-03 0.0000000000000000e+00  5.5335616404473490e-04 6.2936986324812639e-03 0.0000000000000000e+00  5.5330183309272335e-04 6.2940306676545878e-03 0.0000000000000000e+00  5.5324412683906371e-04 6.2943541202405591e-03 0.0000000000000000e+00  5.5318813115317971e-04 6.2946648109997276e-03 0.0000000000000000e+00  5.5315987111643084e-04 6.2949858459472215e-03 0.0000000000000000e+00  5.5313387795141071e-04 6.2953193818507149e-03 0.0000000000000000e+00  5.5310318942939447e-04 6.2956569025919319e-03 0.0000000000000000e+00  5.5307281747266328e-04 6.2959893020427676e-03 0.0000000000000000e+00  5.5304341277977133e-04 6.2963230868170929e-03 0.0000000000000000e+00  5.5301489757945857e-04 6.2966584140677021e-03 0.0000000000000000e+00  5.5298411922399468e-04 6.2969943686036834e-03 0.0000000000000000e+00  5.5294996957826192e-04 6.2973304198929011e-03 0.0000000000000000e+00  5.5292994930106426e-04 6.2976574490667377e-03 0.0000000000000000e+00  5.5292228971891711e-04 6.2979853142534547e-03 0.0000000000000000e+00  5.5292091965732158e-04 6.2983223158933717e-03 0.0000000000000000e+00  5.5291535439559215e-04 6.2986584745869916e-03 0.0000000000000000e+00  5.5290564566006775e-04 6.2989904757912224e-03 0.0000000000000000e+00  5.5290638372570934e-04 6.2993274028319054e-03 0.0000000000000000e+00  5.5292168782204981e-04 6.2996656326138973e-03 0.0000000000000000e+00  5.5307620611556971e-04 6.3000002788224010e-03 0.0000000000000000e+00  5.5323393974264880e-04 6.3000002788224010e-03 0.0000000000000000e+00  5.5338963181793591e-04 6.3000002788224010e-03 0.0000000000000000e+00  5.5355366312538677e-04 6.3000002788224010e-03 0.0000000000000000e+00  5.5372754490780969e-04 6.3000002788224010e-03 0.0000000000000000e+00  5.5390129434635142e-04 6.3000002788224010e-03 0.0000000000000000e+00  5.5407953739088100e-04 6.3000002788224010e-03 0.0000000000000000e+00  5.5426820859521555e-04 6.3000002788224010e-03 0.0000000000000000e+00  5.5446050810080470e-04 6.3000002788224010e-03 0.0000000000000000e+00  5.5466105585129908e-04 6.3000002788224010e-03 0.0000000000000000e+00  5.5486812301733138e-04 6.3000002788224010e-03 0.0000000000000000e+00  5.5506950415273621e-04 6.3000002788224010e-03 0.0000000000000000e+00  5.5528793288865327e-04 6.3000002788224010e-03 0.0000000000000000e+00  5.5550601153961984e-04 6.3000002788224010e-03 0.0000000000000000e+00  5.5571804233599947e-04 6.3000002788224010e-03 0.0000000000000000e+00  5.5593785432822833e-04 6.3000002788224010e-03 0.0000000000000000e+00  5.5616526678372300e-04 6.3000002788224010e-03 0.0000000000000000e+00  5.5638880806142539e-04 6.3000002788224010e-03 0.0000000000000000e+00  5.5661482078576063e-04 6.3000002788224010e-03 0.0000000000000000e+00  5.5684510548630354e-04 6.3000002788224010e-03 0.0000000000000000e+00  5.5708585686667725e-04 6.3000002788224010e-03 0.0000000000000000e+00  5.5731742912327271e-04 6.3000002788224010e-03 0.0000000000000000e+00  5.5755319491094483e-04 6.3000002788224010e-03 0.0000000000000000e+00  5.5779249707692497e-04 6.3000002788224010e-03 0.0000000000000000e+00  5.5802634409611866e-04 6.3000002788224010e-03 0.0000000000000000e+00  5.5826200340230927e-04 6.3000002788224010e-03 0.0000000000000000e+00  5.5849372120783810e-04 6.3000002788224010e-03 0.0000000000000000e+00  5.5872182363516894e-04 6.3000002788224010e-03 0.0000000000000000e+00  5.5895453358464691e-04 6.3000002788224010e-03 0.0000000000000000e+00  5.5918607120798171e-04 6.3000002788224010e-03 0.0000000000000000e+00  5.5941173106274756e-04 6.3000002788224010e-03 0.0000000000000000e+00  5.5962926493852616e-04 6.3000002788224010e-03 0.0000000000000000e+00  5.5984652423657485e-04 6.3000002788224010e-03 0.0000000000000000e+00  5.6006210896840814e-04 6.3000002788224010e-03 0.0000000000000000e+00  5.6027563616757505e-04 6.3000002788224010e-03 0.0000000000000000e+00  5.6047776222250341e-04 6.3000002788224010e-03 0.0000000000000000e+00  5.6067942763154857e-04 6.3000002788224010e-03 0.0000000000000000e+00  5.6087771104897696e-04 6.3000002788224010e-03 0.0000000000000000e+00  5.6107691221242461e-04 6.3000002788224010e-03 0.0000000000000000e+00  5.6127524033778805e-04 6.3000002788224010e-03 0.0000000000000000e+00  5.6147103227191964e-04 6.3000002788224010e-03 0.0000000000000000e+00  5.6165975547349306e-04 6.3000002788224010e-03 0.0000000000000000e+00  5.6184574786014290e-04 6.3000002788224010e-03 0.0000000000000000e+00  5.6203534222851311e-04 6.3000002788224010e-03 0.0000000000000000e+00  5.6221905886885964e-04 6.3000002788224010e-03 0.0000000000000000e+00  5.6240628225730975e-04 6.3000002788224010e-03 0.0000000000000000e+00  5.6259120326399915e-04 6.3000002788224010e-03 0.0000000000000000e+00  5.6277578694452935e-04 6.3000002788224010e-03 0.0000000000000000e+00  5.6295910191737680e-04 6.3000002788224010e-03 0.0000000000000000e+00  5.6313972764908567e-04 6.3000002788224010e-03 0.0000000000000000e+00  5.6331978214366250e-04 6.3000002788224010e-03 0.0000000000000000e+00  5.6349769952595153e-04 6.3000002788224010e-03 0.0000000000000000e+00  5.6367612887193064e-04 6.3000002788224010e-03 0.0000000000000000e+00  5.6385089369490548e-04 6.3000002788224010e-03 0.0000000000000000e+00  5.6402599493336834e-04 6.3000002788224010e-03 0.0000000000000000e+00  5.6420177562629546e-04 6.3000002788224010e-03 0.0000000000000000e+00  5.6437443525392988e-04 6.3000002788224010e-03 0.0000000000000000e+00  5.6454909255778567e-04 6.3000002788224010e-03 0.0000000000000000e+00  5.6472198928539548e-04 6.3000002788224010e-03 0.0000000000000000e+00  5.6489862631211739e-04 6.3000002788224010e-03 0.0000000000000000e+00  5.6508005698049143e-04 6.3000002788224010e-03 0.0000000000000000e+00  5.6525932659714812e-04 6.3000002788224010e-03 0.0000000000000000e+00  5.6543529689250514e-04 6.3000002788224010e-03 0.0000000000000000e+00  5.6561347779746443e-04 6.3000002788224010e-03 0.0000000000000000e+00  5.6579770264553674e-04 6.3000002788224010e-03 0.0000000000000000e+00  5.6597757243560299e-04 6.3000002788224010e-03 0.0000000000000000e+00  5.6615565438435079e-04 