<?xml version="1.0"?>
<VTKFile type="UnstructuredGrid"  version="0.1"  >
<UnstructuredGrid>
<Piece  NumberOfPoints="15540" NumberOfCells="30546">
<Points>
<DataArray  type="Float64"  NumberOfComponents="3"  format="ascii">0 0 0  -0.5 -0.5 0  0.5 -0.5 0  0.5 0 0  0.5 0.5 0  -0.5 0.5 0  -0.5 0.0001 0  -0.5 -0.0001 0  0.5 0.1 0  0.5 -0.1 0  -0.5 -0.1 0  -0.5 0.1 0  -0.4900000000000277 -0.5 0  -0.4800000000000555 -0.5 0  -0.4700000000000832 -0.5 0  -0.4600000000001109 -0.5 0  -0.4500000000001387 -0.5 0  -0.4400000000001664 -0.5 0  -0.4300000000001942 -0.5 0  -0.4200000000002219 -0.5 0  -0.4100000000002497 -0.5 0  -0.4000000000002774 -0.5 0  -0.3900000000003052 -0.5 0  -0.3800000000003328 -0.5 0  -0.3700000000003606 -0.5 0  -0.3600000000003883 -0.5 0  -0.3500000000004161 -0.5 0  -0.3400000000004438 -0.5 0  -0.3300000000004716 -0.5 0  -0.3200000000004993 -0.5 0  -0.3100000000005271 -0.5 0  -0.3000000000005548 -0.5 0  -0.2900000000005825 -0.5 0  -0.2800000000006103 -0.5 0  -0.2700000000006381 -0.5 0  -0.2600000000006658 -0.5 0  -0.2500000000006935 -0.5 0  -0.2400000000007212 -0.5 0  -0.230000000000749 -0.5 0  -0.2200000000007767 -0.5 0  -0.2100000000008044 -0.5 0  -0.2000000000008322 -0.5 0  -0.19000000000086 -0.5 0  -0.1800000000008877 -0.5 0  -0.1700000000009154 -0.5 0  -0.1600000000009431 -0.5 0  -0.1500000000009709 -0.5 0  -0.1400000000009986 -0.5 0  -0.1300000000010264 -0.5 0  -0.1200000000010541 -0.5 0  -0.1100000000010818 -0.5 0  -0.1000000000011096 -0.5 0  -0.09000000000113734 -0.5 0  -0.08000000000116503 -0.5 0  -0.07000000000119283 -0.5 0  -0.06000000000122058 -0.5 0  -0.05000000000124827 -0.5 0  -0.04000000000127607 -0.5 0  -0.03000000000130376 -0.5 0  -0.02000000000133151 -0.5 0  -0.01000000000135925 -0.5 0  -1.376121439022882e-12 -0.5 0  0.009999999998640763 -0.5 0  0.01999999999866864 -0.5 0  0.02999999999869629 -0.5 0  0.03999999999872406 -0.5 0  0.04999999999875182 -0.5 0  0.05999999999877947 -0.5 0  0.06999999999880724 -0.5 0  0.079999999998835 -0.5 0  0.08999999999886266 -0.5 0  0.09999999999889042 -0.5 0  0.1099999999989182 -0.5 0  0.1199999999989459 -0.5 0  0.1299999999989737 -0.5 0  0.1399999999990014 -0.5 0  0.1499999999990291 -0.5 0  0.1599999999990568 -0.5 0  0.1699999999990847 -0.5 0  0.1799999999991124 -0.5 0  0.1899999999991401 -0.5 0  0.1999999999991678 -0.5 0  0.2099999999991955 -0.5 0  0.2199999999992234 -0.5 0  0.2299999999992511 -0.5 0  0.2399999999992788 -0.5 0  0.2499999999993066 -0.5 0  0.2599999999993342 -0.5 0  0.269999999999362 -0.5 0  0.2799999999993897 -0.5 0  0.2899999999994175 -0.5 0  0.2999999999994452 -0.5 0  0.3099999999994729 -0.5 0  0.3199999999995007 -0.5 0  0.3299999999995284 -0.5 0  0.3399999999995562 -0.5 0  0.3499999999995839 -0.5 0  0.3599999999996116 -0.5 0  0.3699999999996393 -0.5 0  0.379999999999667 -0.5 0  0.3899999999996949 -0.5 0  0.3999999999997226 -0.5 0  0.4099999999997503 -0.5 0  0.419999999999778 -0.5 0  0.4299999999998058 -0.5 0  0.4399999999998336 -0.5 0  0.4499999999998613 -0.5 0  0.4599999999998891 -0.5 0  0.4699999999999167 -0.5 0  0.4799999999999445 -0.5 0  0.4899999999999722 -0.5 0  0.5 -0.4902110204681464 0  0.5 -0.4804459958734807 0  0.5 -0.4707048677450883 0  0.5 -0.4609875815766065 0  0.5 -0.4512940759251849 0  0.5 -0.4416242912883993 0  0.5 -0.4319781678689807 0  0.5 -0.4223556545383647 0  0.5 -0.4127566896324213 0  0.5 -0.4031812128200121 0  0.5 -0.3936291733057916 0  0.5 -0.3841005081172659 0  0.5 -0.3745951585781932 0  0.5 -0.3651130778999337 0  0.5 -0.3556541993788045 0  0.5 -0.3462184677228392 0  0.5 -0.3368058273705318 0  0.5 -0.3274162224888609 0  0.5 -0.3180495969712945 0  0.5 -0.3087058944357755 0  0.5 -0.299385058222682 0  0.5 -0.2900870313927414 0  0.5 -0.2808117567250807 0  0.5 -0.2715591844628491 0  0.5 -0.2623292564012653 0  0.5 -0.253121909553727 0  0.5 -0.2439371050851549 0  0.5 -0.2347747685524501 0  0.5 -0.2256348634421331 0  0.5 -0.2165173209784076 0  0.5 -0.207422087829958 0  0.5 -0.1983491207029381 0  0.5 -0.1892983550950482 0  0.5 -0.1802697378305253 0  0.5 -0.1712632154965152 0  0.5 -0.1622787344187354 0  0.5 -0.1533162406595534 0  0.5 -0.1443756800160514 0  0.5 -0.1354569980180493 0  0.5 -0.1265601399261414 0  0.5 -0.1176850622761093 0  0.5 -0.1088317009011999 0  0.5 -0.09166666666668973 0  0.5 -0.08333333333337943 0  0.5 -0.07500000000006915 0  0.5 -0.06666666666675886 0  0.5 -0.05833333333344858 0  0.5 -0.05000000000013693 0  0.5 -0.04166666666678191 0  0.5 -0.03333333333342643 0  0.5 -0.02500000000006916 0  0.5 -0.01666666666671188 0  0.5 -0.00833333333335548 0  0.5 0.008333333333318314 0  0.5 0.01666666666663358 0  0.5 0.02499999999994162 0  0.5 0.03333333333325101 0  0.5 0.04166666666655769 0  0.5 0.04999999999986843 0  0.5 0.05833333333322258 0  0.5 0.06666666666657715 0  0.5 0.07499999999993352 0  0.5 0.08333333333328992 0  0.5 0.09166666666664541 0  0.5 0.1088317009011616 0  0.5 0.1176850622760307 0  0.5 0.1265601399260203 0  0.5 0.1354569980178909 0  0.5 0.1443756800158549 0  0.5 0.153316240659315 0  0.5 0.1622787344184454 0  0.5 0.1712632154961752 0  0.5 0.1802697378301332 0  0.5 0.1892983550946039 0  0.5 0.1983491207024433 0  0.5 0.2074220878294123 0  0.5 0.216517320977811 0  0.5 0.2256348634414833 0  0.5 0.2347747685517479 0  0.5 0.2439371050844009 0  0.5 0.2531219095529224 0  0.5 0.2623292564004089 0  0.5 0.2715591844619371 0  0.5 0.2808117567241139 0  0.5 0.290087031391723 0  0.5 0.2993850582216101 0  0.5 0.3087058944347426 0  0.5 0.3180495969703129 0  0.5 0.3274162224879299 0  0.5 0.3368058273696494 0  0.5 0.3462184677220051 0  0.5 0.3556541993780186 0  0.5 0.3651130778991989 0  0.5 0.3745951585775107 0  0.5 0.3841005081166359 0  0.5 0.3936291733052134 0  0.5 0.4031812128194852 0  0.5 0.412756689631945 0  0.5 0.4223556545379392 0  0.5 0.431978167868607 0  0.5 0.4416242912880781 0  0.5 0.4512940759249164 0  0.5 0.4609875815763912 0  0.5 0.4707048677449264 0  0.5 0.4804459958733726 0  0.5 0.4902110204680924 0  0.4900000000000277 0.5 0  0.4800000000000555 0.5 0  0.4700000000000832 0.5 0  0.4600000000001109 0.5 0  0.4500000000001387 0.5 0  0.4400000000001664 0.5 0  0.4300000000001942 0.5 0  0.4200000000002219 0.5 0  0.4100000000002497 0.5 0  0.4000000000002774 0.5 0  0.3900000000003052 0.5 0  0.3800000000003328 0.5 0  0.3700000000003606 0.5 0  0.3600000000003883 0.5 0  0.3500000000004161 0.5 0  0.3400000000004438 0.5 0  0.3300000000004716 0.5 0  0.3200000000004993 0.5 0  0.3100000000005271 0.5 0  0.3000000000005548 0.5 0  0.2900000000005825 0.5 0  0.2800000000006103 0.5 0  0.2700000000006381 0.5 0  0.2600000000006658 0.5 0  0.2500000000006935 0.5 0  0.2400000000007212 0.5 0  0.230000000000749 0.5 0  0.2200000000007767 0.5 0  0.2100000000008044 0.5 0  0.2000000000008322 0.5 0  0.19000000000086 0.5 0  0.1800000000008877 0.5 0  0.1700000000009154 0.5 0  0.1600000000009431 0.5 0  0.1500000000009709 0.5 0  0.1400000000009986 0.5 0  0.1300000000010264 0.5 0  0.1200000000010541 0.5 0  0.1100000000010818 0.5 0  0.1000000000011096 0.5 0  0.09000000000113734 0.5 0  0.08000000000116503 0.5 0  0.07000000000119283 0.5 0  0.06000000000122058 0.5 0  0.05000000000124827 0.5 0  0.04000000000127607 0.5 0  0.03000000000130376 0.5 0  0.02000000000133151 0.5 0  0.01000000000135925 0.5 0  1.376121439022882e-12 0.5 0  -0.009999999998640763 0.5 0  -0.01999999999866864 0.5 0  -0.02999999999869629 0.5 0  -0.03999999999872406 0.5 0  -0.04999999999875182 0.5 0  -0.05999999999877947 0.5 0  -0.06999999999880724 0.5 0  -0.079999999998835 0.5 0  -0.08999999999886266 0.5 0  -0.09999999999889042 0.5 0  -0.1099999999989182 0.5 0  -0.1199999999989459 0.5 0  -0.1299999999989737 0.5 0  -0.1399999999990014 0.5 0  -0.1499999999990291 0.5 0  -0.1599999999990568 0.5 0  -0.1699999999990847 0.5 0  -0.1799999999991124 0.5 0  -0.1899999999991401 0.5 0  -0.1999999999991678 0.5 0  -0.2099999999991955 0.5 0  -0.2199999999992234 0.5 0  -0.2299999999992511 0.5 0  -0.2399999999992788 0.5 0  -0.2499999999993066 0.5 0  -0.2599999999993342 0.5 0  -0.269999999999362 0.5 0  -0.2799999999993897 0.5 0  -0.2899999999994175 0.5 0  -0.2999999999994452 0.5 0  -0.3099999999994729 0.5 0  -0.3199999999995007 0.5 0  -0.3299999999995284 0.5 0  -0.3399999999995562 0.5 0  -0.3499999999995839 0.5 0  -0.3599999999996116 0.5 0  -0.3699999999996393 0.5 0  -0.379999999999667 0.5 0  -0.3899999999996949 0.5 0  -0.3999999999997226 0.5 0  -0.4099999999997503 0.5 0  -0.419999999999778 0.5 0  -0.4299999999998058 0.5 0  -0.4399999999998336 0.5 0  -0.4499999999998613 0.5 0  -0.4599999999998891 0.5 0  -0.4699999999999167 0.5 0  -0.4799999999999445 0.5 0  -0.4899999999999722 0.5 0  -0.5 0.4902110204681464 0  -0.5 0.4804459958734807 0  -0.5 0.4707048677450883 0  -0.5 0.4609875815766065 0  -0.5 0.4512940759251849 0  -0.5 0.4416242912883993 0  -0.5 0.4319781678689807 0  -0.5 0.4223556545383647 0  -0.5 0.4127566896324213 0  -0.5 0.4031812128200121 0  -0.5 0.3936291733057916 0  -0.5 0.3841005081172659 0  -0.5 0.3745951585781932 0  -0.5 0.3651130778999337 0  -0.5 0.3556541993788045 0  -0.5 0.3462184677228392 0  -0.5 0.3368058273705318 0  -0.5 0.3274162224888609 0  -0.5 0.3180495969712945 0  -0.5 0.3087058944357755 0  -0.5 0.299385058222682 0  -0.5 0.2900870313927414 0  -0.5 0.2808117567250807 0  -0.5 0.2715591844628491 0  -0.5 0.2623292564012653 0  -0.5 0.253121909553727 0  -0.5 0.2439371050851549 0  -0.5 0.2347747685524501 0  -0.5 0.2256348634421331 0  -0.5 0.2165173209784076 0  -0.5 0.207422087829958 0  -0.5 0.1983491207029381 0  -0.5 0.1892983550950482 0  -0.5 0.1802697378305253 0  -0.5 0.1712632154965152 0  -0.5 0.1622787344187354 0  -0.5 0.1533162406595534 0  -0.5 0.1443756800160514 0  -0.5 0.1354569980180493 0  -0.5 0.1265601399261414 0  -0.5 0.1176850622761093 0  -0.5 0.1088317009011999 0  -0.5 0.09167500000001694 0  -0.5 0.08335000000003931 0  -0.5 0.07502500000006167 0  -0.5 0.06670000000008947 0  -0.5 0.05837500000011001 0  -0.5 0.0500500000001328 0  -0.5 0.0417250000001127 0  -0.5 0.03340000000008944 0  -0.5 0.02507500000006573 0  -0.5 0.01675000000004653 0  -0.5 0.008425000000027341 
[...]
<PointData  Vectors="f_7"> 
<DataArray  type="Float64"  Name="f_7"  NumberOfComponents="3" format="ascii">-1.4346874397380375e-06 1.0363475647620705e-04 0.0000000000000000e+00  0.0000000000000000e+00 0.0000000000000000e+00 0.0000000000000000e+00  0.0000000000000000e+00 0.0000000000000000e+00 0.0000000000000000e+00  -3.4766264138193772e-05 4.8368782113053387e-05 0.0000000000000000e+00  6.1569327084874453e-04 7.0000003142046009e-03 0.0000000000000000e+00  6.3275853356672919e-04 7.0000003142046009e-03 0.0000000000000000e+00  6.2427300580120593e-04 6.9976789447635333e-03 0.0000000000000000e+00  -3.0376414540645968e-07 -2.3327814378535820e-07 0.0000000000000000e+00  6.1804668080133742e-04 6.9891794984977091e-03 0.0000000000000000e+00  -4.2196986674287308e-06 7.1014726124669344e-06 0.0000000000000000e+00  -5.1779644722020926e-08 -2.2961908813122665e-07 0.0000000000000000e+00  6.2659452036931248e-04 6.9977812535797082e-03 0.0000000000000000e+00  0.0000000000000000e+00 0.0000000000000000e+00 0.0000000000000000e+00  0.0000000000000000e+00 0.0000000000000000e+00 0.0000000000000000e+00  0.0000000000000000e+00 0.0000000000000000e+00 0.0000000000000000e+00  0.0000000000000000e+00 0.0000000000000000e+00 0.0000000000000000e+00  0.0000000000000000e+00 0.0000000000000000e+00 0.0000000000000000e+00  0.0000000000000000e+00 0.0000000000000000e+00 0.0000000000000000e+00  0.0000000000000000e+00 0.0000000000000000e+00 0.0000000000000000e+00  0.0000000000000000e+00 0.0000000000000000e+00 0.0000000000000000e+00  0.0000000000000000e+00 0.0000000000000000e+00 0.0000000000000000e+00  0.0000000000000000e+00 0.0000000000000000e+00 0.0000000000000000e+00  0.0000000000000000e+00 0.0000000000000000e+00 0.0000000000000000e+00  0.0000000000000000e+00 0.0000000000000000e+00 0.0000000000000000e+00  0.0000000000000000e+00 0.0000000000000000e+00 0.0000000000000000e+00  0.0000000000000000e+00 0.0000000000000000e+00 0.0000000000000000e+00  0.0000000000000000e+00 0.0000000000000000e+00 0.0000000000000000e+00  0.0000000000000000e+00 0.0000000000000000e+00 0.0000000000000000e+00  0.0000000000000000e+00 0.0000000000000000e+00 0.0000000000000000e+00  0.0000000000000000e+00 0.0000000000000000e+00 0.0000000000000000e+00  0.0000000000000000e+00 0.0000000000000000e+00 0.0000000000000000e+00  0.0000000000000000e+00 0.0000000000000000e+00 0.0000000000000000e+00  0.0000000000000000e+00 0.0000000000000000e+00 0.0000000000000000e+00  0.0000000000000000e+00 0.0000000000000000e+00 0.0000000000000000e+00  0.0000000000000000e+00 0.0000000000000000e+00 0.0000000000000000e+00  0.0000000000000000e+00 0.0000000000000000e+00 0.0000000000000000e+00  0.0000000000000000e+00 0.0000000000000000e+00 0.0000000000000000e+00  0.0000000000000000e+00 0.0000000000000000e+00 0.0000000000000000e+00  0.0000000000000000e+00 0.0000000000000000e+00 0.0000000000000000e+00  0.0000000000000000e+00 0.0000000000000000e+00 0.0000000000000000e+00  0.0000000000000000e+00 0.0000000000000000e+00 0.0000000000000000e+00  0.0000000000000000e+00 0.0000000000000000e+00 0.0000000000000000e+00  0.0000000000000000e+00 0.0000000000000000e+00 0.0000000000000000e+00  0.0000000000000000e+00 0.0000000000000000e+00 0.0000000000000000e+00  0.0000000000000000e+00 0.0000000000000000e+00 0.0000000000000000e+00  0.0000000000000000e+00 0.0000000000000000e+00 0.0000000000000000e+00  0.0000000000000000e+00 0.0000000000000000e+00 0.0000000000000000e+00  0.0000000000000000e+00 0.0000000000000000e+00 0.0000000000000000e+00  0.0000000000000000e+00 0.0000000000000000e+00 0.0000000000000000e+00  0.0000000000000000e+00 0.0000000000000000e+00 0.0000000000000000e+00  0.0000000000000000e+00 0.0000000000000000e+00 0.0000000000000000e+00  0.0000000000000000e+00 0.0000000000000000e+00 0.0000000000000000e+00  0.0000000000000000e+00 0.0000000000000000e+00 0.0000000000000000e+00  0.0000000000000000e+00 0.0000000000000000e+00 0.0000000000000000e+00  0.0000000000000000e+00 0.0000000000000000e+00 0.0000000000000000e+00  0.0000000000000000e+00 0.0000000000000000e+00 0.0000000000000000e+00  0.0000000000000000e+00 0.0000000000000000e+00 0.0000000000000000e+00  0.0000000000000000e+00 0.0000000000000000e+00 0.0000000000000000e+00  0.0000000000000000e+00 0.0000000000000000e+00 0.0000000000000000e+00  0.0000000000000000e+00 0.0000000000000000e+00 0.0000000000000000e+00  0.0000000000000000e+00 0.0000000000000000e+00 0.0000000000000000e+00  0.0000000000000000e+00 0.0000000000000000e+00 0.0000000000000000e+00  0.0000000000000000e+00 0.0000000000000000e+00 0.0000000000000000e+00  0.0000000000000000e+00 0.0000000000000000e+00 0.0000000000000000e+00  0.0000000000000000e+00 0.0000000000000000e+00 0.0000000000000000e+00  0.0000000000000000e+00 0.0000000000000000e+00 0.0000000000000000e+00  0.0000000000000000e+00 0.0000000000000000e+00 0.0000000000000000e+00  0.0000000000000000e+00 0.0000000000000000e+00 0.0000000000000000e+00  0.0000000000000000e+00 0.0000000000000000e+00 0.0000000000000000e+00  0.0000000000000000e+00 0.0000000000000000e+00 0.0000000000000000e+00  0.0000000000000000e+00 0.0000000000000000e+00 0.0000000000000000e+00  0.0000000000000000e+00 0.0000000000000000e+00 0.0000000000000000e+00  0.0000000000000000e+00 0.0000000000000000e+00 0.0000000000000000e+00  0.0000000000000000e+00 0.0000000000000000e+00 0.0000000000000000e+00  0.0000000000000000e+00 0.0000000000000000e+00 0.0000000000000000e+00  0.0000000000000000e+00 0.0000000000000000e+00 0.0000000000000000e+00  0.0000000000000000e+00 0.0000000000000000e+00 0.0000000000000000e+00  0.0000000000000000e+00 0.0000000000000000e+00 0.0000000000000000e+00  0.0000000000000000e+00 0.0000000000000000e+00 0.0000000000000000e+00  0.0000000000000000e+00 0.0000000000000000e+00 0.0000000000000000e+00  0.0000000000000000e+00 0.0000000000000000e+00 0.0000000000000000e+00  0.0000000000000000e+00 0.0000000000000000e+00 0.0000000000000000e+00  0.0000000000000000e+00 0.0000000000000000e+00 0.0000000000000000e+00  0.0000000000000000e+00 0.0000000000000000e+00 0.0000000000000000e+00  0.0000000000000000e+00 0.0000000000000000e+00 0.0000000000000000e+00  0.0000000000000000e+00 0.0000000000000000e+00 0.0000000000000000e+00  0.0000000000000000e+00 0.0000000000000000e+00 0.0000000000000000e+00  0.0000000000000000e+00 0.0000000000000000e+00 0.0000000000000000e+00  0.0000000000000000e+00 0.0000000000000000e+00 0.0000000000000000e+00  0.0000000000000000e+00 0.0000000000000000e+00 0.0000000000000000e+00  0.0000000000000000e+00 0.0000000000000000e+00 0.0000000000000000e+00  0.0000000000000000e+00 0.0000000000000000e+00 0.0000000000000000e+00  0.0000000000000000e+00 0.0000000000000000e+00 0.0000000000000000e+00  0.0000000000000000e+00 0.0000000000000000e+00 0.0000000000000000e+00  0.0000000000000000e+00 0.0000000000000000e+00 0.0000000000000000e+00  0.0000000000000000e+00 0.0000000000000000e+00 0.0000000000000000e+00  0.0000000000000000e+00 0.0000000000000000e+00 0.0000000000000000e+00  0.0000000000000000e+00 0.0000000000000000e+00 0.0000000000000000e+00  0.0000000000000000e+00 0.0000000000000000e+00 0.0000000000000000e+00  0.0000000000000000e+00 0.0000000000000000e+00 0.0000000000000000e+00  0.0000000000000000e+00 0.0000000000000000e+00 0.0000000000000000e+00  0.0000000000000000e+00 0.0000000000000000e+00 0.0000000000000000e+00  0.0000000000000000e+00 0.0000000000000000e+00 0.0000000000000000e+00  0.0000000000000000e+00 0.0000000000000000e+00 0.0000000000000000e+00  0.0000000000000000e+00 0.0000000000000000e+00 0.0000000000000000e+00  0.0000000000000000e+00 0.0000000000000000e+00 0.0000000000000000e+00  0.0000000000000000e+00 0.0000000000000000e+00 0.0000000000000000e+00  0.0000000000000000e+00 0.0000000000000000e+00 0.0000000000000000e+00  0.0000000000000000e+00 0.0000000000000000e+00 0.0000000000000000e+00  0.0000000000000000e+00 0.0000000000000000e+00 0.0000000000000000e+00  0.0000000000000000e+00 0.0000000000000000e+00 0.0000000000000000e+00  -3.9365338293141291e-07 4.1374332168577002e-07 0.0000000000000000e+00  -6.3645967080032002e-07 7.0893618092300297e-07 0.0000000000000000e+00  -8.2926487943452199e-07 9.5798341953367615e-07 0.0000000000000000e+00  -9.9344101423604585e-07 1.1788930119936126e-06 0.0000000000000000e+00  -1.1380896852067172e-06 1.3819303721194718e-06 0.0000000000000000e+00  -1.2690435996257840e-06 1.5729185801545827e-06 0.0000000000000000e+00  -1.3907354999259076e-06 1.7549083059845969e-06 0.0000000000000000e+00  -1.5021146804891714e-06 1.9303529757602463e-06 0.0000000000000000e+00  -1.6065043300174923e-06 2.1007681937490732e-06 0.0000000000000000e+00  -1.7062523151852061e-06 2.2664271137174725e-06 0.0000000000000000e+00  -1.8008283065651444e-06 2.4293416169966528e-06 0.0000000000000000e+00  -1.8916310438269996e-06 2.5887139185112583e-06 0.0000000000000000e+00  -1.9786912939685943e-06 2.7464730339280569e-06 0.0000000000000000e+00  -2.0633075284924302e-06 2.9013123687572568e-06 0.0000000000000000e+00  -2.1453191816332351e-06 3.0549923791326623e-06 0.0000000000000000e+00  -2.2257237475682210e-06 3.2068513565426270e-06 0.0000000000000000e+00  -2.3038305878564731e-06 3.3572393333908262e-06 0.0000000000000000e+00  -2.3804872358341232e-06 3.5062492821774947e-06 0.0000000000000000e+00  -2.4560805664270953e-06 3.6545147878300579e-06 0.0000000000000000e+00  -2.5302876433037442e-06 3.8014140726608534e-06 0.0000000000000000e+00  -2.6035069680625233e-06 3.9474278316979174e-06 0.0000000000000000e+00  -2.6758752873441121e-06 4.0925314076309264e-06 0.0000000000000000e+00  -2.7475589926174070e-06 4.2367122991256898e-06 0.0000000000000000e+00  -2.8186063774194386e-06 4.3800667146586409e-06 0.0000000000000000e+00  -2.8891418399338524e-06 4.5226122483664316e-06 0.0000000000000000e+00  -2.9592628445457294e-06 4.6644603413195559e-06 0.0000000000000000e+00  -3.0291031304500477e-06 4.8055656846341243e-06 0.0000000000000000e+00  -3.0986336981418093e-06 4.9461143115181189e-06 0.0000000000000000e+00  -3.1679119083915590e-06 5.0861358215228664e-06 0.0000000000000000e+00  -3.2370904345485853e-06 5.2256360817800101e-06 0.0000000000000000e+00  -3.3063924005853872e-06 5.3646482138920957e-06 0.0000000000000000e+00  -3.3758461257103306e-06 5.5033119102061353e-06 0.0000000000000000e+00  -3.4455401726666826e-06 5.6418168460920931e-06 0.0000000000000000e+00  -3.5157003429592871e-06 5.7803898760075105e-06 0.0000000000000000e+00  -3.5862159167712322e-06 5.9189848718945425e-06 0.0000000000000000e+00  -3.6578236947800730e-06 6.0582668552799154e-06 0.0000000000000000e+00  -3.7304359520879871e-06 6.1984042153171736e-06 0.0000000000000000e+00  -3.8043890800466136e-06 6.3403027439507729e-06 0.0000000000000000e+00  -3.8803735789157263e-06 6.4837246802813090e-06 0.0000000000000000e+00  -3.9586057634003403e-06 6.6301853508288760e-06 0.0000000000000000e+00  -4.0407766164789313e-06 6.7810019746468847e-06 0.0000000000000000e+00  -4.1275722120051945e-06 6.9382778153705454e-06 0.0000000000000000e+00  -4.3168788475076516e-06 7.2677692898420854e-06 0.0000000000000000e+00  -4.4243010252509233e-06 7.4497964030508127e-06 0.0000000000000000e+00  -4.5467663815718202e-06 7.6465980914299630e-06 0.0000000000000000e+00  -4.6928588747966939e-06 7.8798410861642953e-06 0.0000000000000000e+00  -4.8608346227358791e-06 8.1409148917544846e-06 0.0000000000000000e+00  -5.0883681085763443e-06 8.4598965061514536e-06 0.0000000000000000e+00  -5.3844206050293545e-06 8.9142957309934264e-06 0.0000000000000000e+00  -5.8320752148088348e-06 9.5369226743768195e-06 0.0000000000000000e+00  -6.5201298199305541e-06 1.0471854772010139e-05 0.0000000000000000e+00  -7.9478063001486881e-06 1.2454939616245289e-05 0.0000000000000000e+00  -1.2418710667615868e-05 1.8614220459914970e-05 0.0000000000000000e+00  -4.3676909247429482e-04 5.8024691362741901e-03 0.0000000000000000e+00  5.8543854115010029e-04 6.9416593530843345e-03 0.0000000000000000e+00  6.1002409903826525e-04 6.9759875098730027e-03 0.0000000000000000e+00  6.1496150840192377e-04 6.9831486291487268e-03 0.0000000000000000e+00  6.1654014034217858e-04 6.9855085772511181e-03 0.0000000000000000e+00  6.1721310512216599e-04 6.9866134783801359e-03 0.0000000000000000e+00  6.1758441967807172e-04 6.9873850981017858e-03 0.0000000000000000e+00  6.1780511008569503e-04 6.9878994354992154e-03 0.0000000000000000e+00  6.1792920929848720e-04 6.9882991572160578e-03 0.0000000000000000e+00  6.1799116659955471e-04 6.9886206472947734e-03 0.0000000000000000e+00  6.1803487032417910e-04 6.9889156978036647e-03 0.0000000000000000e+00  6.1803459507326481e-04 6.9894346563088069e-03 0.0000000000000000e+00  6.1800984206563162e-04 6.9896812596748192e-03 0.0000000000000000e+00  6.1797467050270954e-04 6.9899170926827226e-03 0.0000000000000000e+00  6.1792974097546027e-04 6.9901460732406965e-03 0.0000000000000000e+00  6.1787683159383346e-04 6.9903739311849619e-03 0.0000000000000000e+00  6.1781946111430801e-04 6.9906030946431490e-03 0.0000000000000000e+00  6.1775647779947697e-04 6.9908322830745124e-03 0.0000000000000000e+00  6.1768982355191106e-04 6.9910624126153014e-03 0.0000000000000000e+00  6.1761915448024730e-04 6.9912921729533544e-03 0.0000000000000000e+00  6.1754764976261120e-04 6.9915247143632524e-03 0.0000000000000000e+00  6.1747232013545817e-04 6.9917600705768010e-03 0.0000000000000000e+00  6.1739536492198376e-04 6.9919971784891252e-03 0.0000000000000000e+00  6.1731960476039168e-04 6.9922346779658067e-03 0.0000000000000000e+00  6.1724460855125840e-04 6.9924769402448161e-03 0.0000000000000000e+00  6.1716822126019666e-04 6.9927210107900211e-03 0.0000000000000000e+00  6.1709176218493935e-04 6.9929659387333145e-03 0.0000000000000000e+00  6.1701632439008138e-04 6.9932138043755218e-03 0.0000000000000000e+00  6.1694193975993879e-04 6.9934647492586035e-03 0.0000000000000000e+00  6.1686668071645931e-04 6.9937195984423788e-03 0.0000000000000000e+00  6.1678634589155674e-04 6.9939783190696323e-03 0.0000000000000000e+00  6.1670405900258898e-04 6.9942389820801384e-03 0.0000000000000000e+00  6.1662130180248657e-04 6.9945011531655056e-03 0.0000000000000000e+00  6.1653657195303267e-04 6.9947617258459462e-03 0.0000000000000000e+00  6.1644951923662508e-04 6.9950277517630780e-03 0.0000000000000000e+00  6.1636182527543041e-04 6.9952948006390793e-03 0.0000000000000000e+00  6.1627144001073927e-04 6.9955513047378617e-03 0.0000000000000000e+00  6.1618435607991347e-04 6.9957931945079108e-03 0.0000000000000000e+00  6.1612977074327192e-04 6.9960460948471186e-03 0.0000000000000000e+00  6.1607895567242796e-04 6.9963124844748077e-03 0.0000000000000000e+00  6.1602429207100590e-04 6.9965823975982411e-03 0.0000000000000000e+00  6.1597143718857786e-04 6.9968465979123526e-03 0.0000000000000000e+00  6.1592097332752768e-04 6.9971113762092836e-03 0.0000000000000000e+00  6.1587300389110723e-04 6.9973774800901091e-03 0.0000000000000000e+00  6.1582400318338558e-04 6.9976433960541179e-03 0.0000000000000000e+00  6.1577271336009192e-04 6.9979092605779395e-03 0.0000000000000000e+00  6.1573859126736873e-04 6.9981646321715931e-03 0.0000000000000000e+00  6.1571983079706366e-04 6.9984202209891913e-03 0.0000000000000000e+00  6.1570965149926045e-04 6.9986857423188923e-03 0.0000000000000000e+00  6.1569649344359566e-04 6.9989499218226295e-03 0.0000000000000000e+00  6.1568017506370134e-04 6.9992091578136607e-03 0.0000000000000000e+00  6.1567728636066643e-04 6.9994735048510654e-03 0.0000000000000000e+00  6.1569155365255568e-04 6.9997390564422298e-03 0.0000000000000000e+00  6.1581442641239770e-04 7.0000003142046009e-03 0.0000000000000000e+00  6.1594235213551418e-04 7.0000003142046009e-03 0.0000000000000000e+00  6.1606866206435017e-04 7.0000003142046009e-03 0.0000000000000000e+00  6.1620468815218386e-04 7.0000003142046009e-03 0.0000000000000000e+00  6.1635221124074139e-04 7.0000003142046009e-03 0.0000000000000000e+00  6.1650081738851155e-04 7.0000003142046009e-03 0.0000000000000000e+00  6.1665477183450875e-04 7.0000003142046009e-03 0.0000000000000000e+00  6.1682079135522258e-04 7.0000003142046009e-03 0.0000000000000000e+00  6.1699126582939290e-04 7.0000003142046009e-03 0.0000000000000000e+00  6.1717191273114665e-04 7.0000003142046009e-03 0.0000000000000000e+00  6.1736010385195520e-04 7.0000003142046009e-03 0.0000000000000000e+00  6.1754261133293057e-04 7.0000003142046009e-03 0.0000000000000000e+00  6.1774452386494246e-04 7.0000003142046009e-03 0.0000000000000000e+00  6.1794664290620600e-04 7.0000003142046009e-03 0.0000000000000000e+00  6.1814248723248788e-04 7.0000003142046009e-03 0.0000000000000000e+00  6.1834723643044509e-04 7.0000003142046009e-03 0.0000000000000000e+00  6.1856092411058557e-04 7.0000003142046009e-03 0.0000000000000000e+00  6.1877083948819070e-04 7.0000003142046009e-03 0.0000000000000000e+00  6.1898404153604549e-04 7.0000003142046009e-03 0.0000000000000000e+00  6.1920230841345809e-04 7.0000003142046009e-03 0.0000000000000000e+00  6.1943263166928963e-04 7.0000003142046009e-03 0.0000000000000000e+00  6.1965315477458145e-04 7.0000003142046009e-03 0.0000000000000000e+00  6.1987875232769540e-04 7.0000003142046009e-03 0.0000000000000000e+00  6.2010874221300272e-04 7.0000003142046009e-03 0.0000000000000000e+00  6.2033300627207426e-04 7.0000003142046009e-03 0.0000000000000000e+00  6.2055975583350344e-04 7.0000003142046009e-03 0.0000000000000000e+00  6.2078250950037977e-04 7.0000003142046009e-03 0.0000000000000000e+00  6.2100160238765651e-04 7.0000003142046009e-03 0.0000000000000000e+00  6.2122638354628848e-04 7.0000003142046009e-03 0.0000000000000000e+00  6.2145028619157864e-04 7.0000003142046009e-03 0.0000000000000000e+00  6.2166805267916965e-04 7.0000003142046009e-03 0.0000000000000000e+00  6.2187729356678553e-04 7.0000003142046009e-03 0.0000000000000000e+00  6.2208664895955102e-04 7.0000003142046009e-03 0.0000000000000000e+00  6.2229451341126220e-04 7.0000003142046009e-03 0.0000000000000000e+00  6.2250089798279989e-04 7.0000003142046009e-03 0.0000000000000000e+00  6.2269496979534638e-04 7.0000003142046009e-03 0.0000000000000000e+00  6.2288906774188616e-04 7.0000003142046009e-03 0.0000000000000000e+00  6.2307997971282987e-04 7.0000003142046009e-03 0.0000000000000000e+00  6.2327237900361931e-04 7.0000003142046009e-03 0.0000000000000000e+00  6.2346462927133535e-04 7.0000003142046009e-03 0.0000000000000000e+00  6.2365476293072550e-04 7.0000003142046009e-03 0.0000000000000000e+00  6.2383771728091134e-04 7.0000003142046009e-03 0.0000000000000000e+00  6.2401826077480914e-04 7.0000003142046009e-03 0.0000000000000000e+00  6.2420338215444344e-04 7.0000003142046009e-03 0.0000000000000000e+00  6.2438293567612310e-04 7.0000003142046009e-03 0.0000000000000000e+00  6.2456691401502687e-04 7.0000003142046009e-03 0.0000000000000000e+00  6.2474907156987835e-04 7.0000003142046009e-03 0.0000000000000000e+00  6.2493198900775765e-04 7.0000003142046009e-03 0.0000000000000000e+00  6.2511418516962146e-04 7.0000003142046009e-03 0.0000000000000000e+00  6.2529412764692122e-04 7.0000003142046009e-03 0.0000000000000000e+00  6.2547432299368117e-04 7.0000003142046009e-03 0.0000000000000000e+00  6.2565312165347256e-04 7.0000003142046009e-03 0.0000000000000000e+00  6.2583329840359839e-04 7.0000003142046009e-03 0.0000000000000000e+00  6.2601010284588684e-04 7.0000003142046009e-03 0.0000000000000000e+00  6.2618819580822387e-04 7.0000003142046009e-03 0.0000000000000000e+00  6.2636778055827640e-04 7.0000003142046009e-03 0.0000000000000000e+00  6.2654461270885407e-04 7.0000003142046009e-03 0.0000000000000000e+00  6.2672439355678053e-04 7.0000003142046009e-03 0.0000000000000000e+00  6.2690328761018019e-04 7.0000003142046009e-03 0.0000000000000000e+00  6.2708690726682244e-04 7.0000003142046009e-03 0.0000000000000000e+00  6.2727678752831509e-04 7.0000003142046009e-03 0.0000000000000000e+00  6.2746499434981797e-04 7.0000003142046009e-03 0.0000000000000000e+00  6.2765044014771406e-04 7.0000003142046009e-03 0.0000000000000000e+00  6.2783897229744983e-04 7.0000003142046009e-03 0.0000000000000000e+00  6.2803486051745316e-04 7.0000003142046009e-03 0.0000000000000000e+00  6.2822666378755613e-04 7.0000003142046009e-03 0.0000000000000000e+00  6.2841726254575677e-04 