<?xml version="1.0"?>
<VTKFile type="UnstructuredGrid"  version="0.1"  >
<UnstructuredGrid>
<Piece  NumberOfPoints="15540" NumberOfCells="30546">
<Points>
<DataArray  type="Float64"  NumberOfComponents="3"  format="ascii">0 0 0  -0.5 -0.5 0  0.5 -0.5 0  0.5 0 0  0.5 0.5 0  -0.5 0.5 0  -0.5 0.0001 0  -0.5 -0.0001 0  0.5 0.1 0  0.5 -0.1 0  -0.5 -0.1 0  -0.5 0.1 0  -0.4900000000000277 -0.5 0  -0.4800000000000555 -0.5 0  -0.4700000000000832 -0.5 0  -0.4600000000001109 -0.5 0  -0.4500000000001387 -0.5 0  -0.4400000000001664 -0.5 0  -0.4300000000001942 -0.5 0  -0.4200000000002219 -0.5 0  -0.4100000000002497 -0.5 0  -0.4000000000002774 -0.5 0  -0.3900000000003052 -0.5 0  -0.3800000000003328 -0.5 0  -0.3700000000003606 -0.5 0  -0.3600000000003883 -0.5 0  -0.3500000000004161 -0.5 0  -0.3400000000004438 -0.5 0  -0.3300000000004716 -0.5 0  -0.3200000000004993 -0.5 0  -0.3100000000005271 -0.5 0  -0.3000000000005548 -0.5 0  -0.2900000000005825 -0.5 0  -0.2800000000006103 -0.5 0  -0.2700000000006381 -0.5 0  -0.2600000000006658 -0.5 0  -0.2500000000006935 -0.5 0  -0.2400000000007212 -0.5 0  -0.230000000000749 -0.5 0  -0.2200000000007767 -0.5 0  -0.2100000000008044 -0.5 0  -0.2000000000008322 -0.5 0  -0.19000000000086 -0.5 0  -0.1800000000008877 -0.5 0  -0.1700000000009154 -0.5 0  -0.1600000000009431 -0.5 0  -0.1500000000009709 -0.5 0  -0.1400000000009986 -0.5 0  -0.1300000000010264 -0.5 0  -0.1200000000010541 -0.5 0  -0.1100000000010818 -0.5 0  -0.1000000000011096 -0.5 0  -0.09000000000113734 -0.5 0  -0.08000000000116503 -0.5 0  -0.07000000000119283 -0.5 0  -0.06000000000122058 -0.5 0  -0.05000000000124827 -0.5 0  -0.04000000000127607 -0.5 0  -0.03000000000130376 -0.5 0  -0.02000000000133151 -0.5 0  -0.01000000000135925 -0.5 0  -1.376121439022882e-12 -0.5 0  0.009999999998640763 -0.5 0  0.01999999999866864 -0.5 0  0.02999999999869629 -0.5 0  0.03999999999872406 -0.5 0  0.04999999999875182 -0.5 0  0.05999999999877947 -0.5 0  0.06999999999880724 -0.5 0  0.079999999998835 -0.5 0  0.08999999999886266 -0.5 0  0.09999999999889042 -0.5 0  0.1099999999989182 -0.5 0  0.1199999999989459 -0.5 0  0.1299999999989737 -0.5 0  0.1399999999990014 -0.5 0  0.1499999999990291 -0.5 0  0.1599999999990568 -0.5 0  0.1699999999990847 -0.5 0  0.1799999999991124 -0.5 0  0.1899999999991401 -0.5 0  0.1999999999991678 -0.5 0  0.2099999999991955 -0.5 0  0.2199999999992234 -0.5 0  0.2299999999992511 -0.5 0  0.2399999999992788 -0.5 0  0.2499999999993066 -0.5 0  0.2599999999993342 -0.5 0  0.269999999999362 -0.5 0  0.2799999999993897 -0.5 0  0.2899999999994175 -0.5 0  0.2999999999994452 -0.5 0  0.3099999999994729 -0.5 0  0.3199999999995007 -0.5 0  0.3299999999995284 -0.5 0  0.3399999999995562 -0.5 0  0.3499999999995839 -0.5 0  0.3599999999996116 -0.5 0  0.3699999999996393 -0.5 0  0.379999999999667 -0.5 0  0.3899999999996949 -0.5 0  0.3999999999997226 -0.5 0  0.4099999999997503 -0.5 0  0.419999999999778 -0.5 0  0.4299999999998058 -0.5 0  0.4399999999998336 -0.5 0  0.4499999999998613 -0.5 0  0.4599999999998891 -0.5 0  0.4699999999999167 -0.5 0  0.4799999999999445 -0.5 0  0.4899999999999722 -0.5 0  0.5 -0.4902110204681464 0  0.5 -0.4804459958734807 0  0.5 -0.4707048677450883 0  0.5 -0.4609875815766065 0  0.5 -0.4512940759251849 0  0.5 -0.4416242912883993 0  0.5 -0.4319781678689807 0  0.5 -0.4223556545383647 0  0.5 -0.4127566896324213 0  0.5 -0.4031812128200121 0  0.5 -0.3936291733057916 0  0.5 -0.3841005081172659 0  0.5 -0.3745951585781932 0  0.5 -0.3651130778999337 0  0.5 -0.3556541993788045 0  0.5 -0.3462184677228392 0  0.5 -0.3368058273705318 0  0.5 -0.3274162224888609 0  0.5 -0.3180495969712945 0  0.5 -0.3087058944357755 0  0.5 -0.299385058222682 0  0.5 -0.2900870313927414 0  0.5 -0.2808117567250807 0  0.5 -0.2715591844628491 0  0.5 -0.2623292564012653 0  0.5 -0.253121909553727 0  0.5 -0.2439371050851549 0  0.5 -0.2347747685524501 0  0.5 -0.2256348634421331 0  0.5 -0.2165173209784076 0  0.5 -0.207422087829958 0  0.5 -0.1983491207029381 0  0.5 -0.1892983550950482 0  0.5 -0.1802697378305253 0  0.5 -0.1712632154965152 0  0.5 -0.1622787344187354 0  0.5 -0.1533162406595534 0  0.5 -0.1443756800160514 0  0.5 -0.1354569980180493 0  0.5 -0.1265601399261414 0  0.5 -0.1176850622761093 0  0.5 -0.1088317009011999 0  0.5 -0.09166666666668973 0  0.5 -0.08333333333337943 0  0.5 -0.07500000000006915 0  0.5 -0.06666666666675886 0  0.5 -0.05833333333344858 0  0.5 -0.05000000000013693 0  0.5 -0.04166666666678191 0  0.5 -0.03333333333342643 0  0.5 -0.02500000000006916 0  0.5 -0.01666666666671188 0  0.5 -0.00833333333335548 0  0.5 0.008333333333318314 0  0.5 0.01666666666663358 0  0.5 0.02499999999994162 0  0.5 0.03333333333325101 0  0.5 0.04166666666655769 0  0.5 0.04999999999986843 0  0.5 0.05833333333322258 0  0.5 0.06666666666657715 0  0.5 0.07499999999993352 0  0.5 0.08333333333328992 0  0.5 0.09166666666664541 0  0.5 0.1088317009011616 0  0.5 0.1176850622760307 0  0.5 0.1265601399260203 0  0.5 0.1354569980178909 0  0.5 0.1443756800158549 0  0.5 0.153316240659315 0  0.5 0.1622787344184454 0  0.5 0.1712632154961752 0  0.5 0.1802697378301332 0  0.5 0.1892983550946039 0  0.5 0.1983491207024433 0  0.5 0.2074220878294123 0  0.5 0.216517320977811 0  0.5 0.2256348634414833 0  0.5 0.2347747685517479 0  0.5 0.2439371050844009 0  0.5 0.2531219095529224 0  0.5 0.2623292564004089 0  0.5 0.2715591844619371 0  0.5 0.2808117567241139 0  0.5 0.290087031391723 0  0.5 0.2993850582216101 0  0.5 0.3087058944347426 0  0.5 0.3180495969703129 0  0.5 0.3274162224879299 0  0.5 0.3368058273696494 0  0.5 0.3462184677220051 0  0.5 0.3556541993780186 0  0.5 0.3651130778991989 0  0.5 0.3745951585775107 0  0.5 0.3841005081166359 0  0.5 0.3936291733052134 0  0.5 0.4031812128194852 0  0.5 0.412756689631945 0  0.5 0.4223556545379392 0  0.5 0.431978167868607 0  0.5 0.4416242912880781 0  0.5 0.4512940759249164 0  0.5 0.4609875815763912 0  0.5 0.4707048677449264 0  0.5 0.4804459958733726 0  0.5 0.4902110204680924 0  0.4900000000000277 0.5 0  0.4800000000000555 0.5 0  0.4700000000000832 0.5 0  0.4600000000001109 0.5 0  0.4500000000001387 0.5 0  0.4400000000001664 0.5 0  0.4300000000001942 0.5 0  0.4200000000002219 0.5 0  0.4100000000002497 0.5 0  0.4000000000002774 0.5 0  0.3900000000003052 0.5 0  0.3800000000003328 0.5 0  0.3700000000003606 0.5 0  0.3600000000003883 0.5 0  0.3500000000004161 0.5 0  0.3400000000004438 0.5 0  0.3300000000004716 0.5 0  0.3200000000004993 0.5 0  0.3100000000005271 0.5 0  0.3000000000005548 0.5 0  0.2900000000005825 0.5 0  0.2800000000006103 0.5 0  0.2700000000006381 0.5 0  0.2600000000006658 0.5 0  0.2500000000006935 0.5 0  0.2400000000007212 0.5 0  0.230000000000749 0.5 0  0.2200000000007767 0.5 0  0.2100000000008044 0.5 0  0.2000000000008322 0.5 0  0.19000000000086 0.5 0  0.1800000000008877 0.5 0  0.1700000000009154 0.5 0  0.1600000000009431 0.5 0  0.1500000000009709 0.5 0  0.1400000000009986 0.5 0  0.1300000000010264 0.5 0  0.1200000000010541 0.5 0  0.1100000000010818 0.5 0  0.1000000000011096 0.5 0  0.09000000000113734 0.5 0  0.08000000000116503 0.5 0  0.07000000000119283 0.5 0  0.06000000000122058 0.5 0  0.05000000000124827 0.5 0  0.04000000000127607 0.5 0  0.03000000000130376 0.5 0  0.02000000000133151 0.5 0  0.01000000000135925 0.5 0  1.376121439022882e-12 0.5 0  -0.009999999998640763 0.5 0  -0.01999999999866864 0.5 0  -0.02999999999869629 0.5 0  -0.03999999999872406 0.5 0  -0.04999999999875182 0.5 0  -0.05999999999877947 0.5 0  -0.06999999999880724 0.5 0  -0.079999999998835 0.5 0  -0.08999999999886266 0.5 0  -0.09999999999889042 0.5 0  -0.1099999999989182 0.5 0  -0.1199999999989459 0.5 0  -0.1299999999989737 0.5 0  -0.1399999999990014 0.5 0  -0.1499999999990291 0.5 0  -0.1599999999990568 0.5 0  -0.1699999999990847 0.5 0  -0.1799999999991124 0.5 0  -0.1899999999991401 0.5 0  -0.1999999999991678 0.5 0  -0.2099999999991955 0.5 0  -0.2199999999992234 0.5 0  -0.2299999999992511 0.5 0  -0.2399999999992788 0.5 0  -0.2499999999993066 0.5 0  -0.2599999999993342 0.5 0  -0.269999999999362 0.5 0  -0.2799999999993897 0.5 0  -0.2899999999994175 0.5 0  -0.2999999999994452 0.5 0  -0.3099999999994729 0.5 0  -0.3199999999995007 0.5 0  -0.3299999999995284 0.5 0  -0.3399999999995562 0.5 0  -0.3499999999995839 0.5 0  -0.3599999999996116 0.5 0  -0.3699999999996393 0.5 0  -0.379999999999667 0.5 0  -0.3899999999996949 0.5 0  -0.3999999999997226 0.5 0  -0.4099999999997503 0.5 0  -0.419999999999778 0.5 0  -0.4299999999998058 0.5 0  -0.4399999999998336 0.5 0  -0.4499999999998613 0.5 0  -0.4599999999998891 0.5 0  -0.4699999999999167 0.5 0  -0.4799999999999445 0.5 0  -0.4899999999999722 0.5 0  -0.5 0.4902110204681464 0  -0.5 0.4804459958734807 0  -0.5 0.4707048677450883 0  -0.5 0.4609875815766065 0  -0.5 0.4512940759251849 0  -0.5 0.4416242912883993 0  -0.5 0.4319781678689807 0  -0.5 0.4223556545383647 0  -0.5 0.4127566896324213 0  -0.5 0.4031812128200121 0  -0.5 0.3936291733057916 0  -0.5 0.3841005081172659 0  -0.5 0.3745951585781932 0  -0.5 0.3651130778999337 0  -0.5 0.3556541993788045 0  -0.5 0.3462184677228392 0  -0.5 0.3368058273705318 0  -0.5 0.3274162224888609 0  -0.5 0.3180495969712945 0  -0.5 0.3087058944357755 0  -0.5 0.299385058222682 0  -0.5 0.2900870313927414 0  -0.5 0.2808117567250807 0  -0.5 0.2715591844628491 0  -0.5 0.2623292564012653 0  -0.5 0.253121909553727 0  -0.5 0.2439371050851549 0  -0.5 0.2347747685524501 0  -0.5 0.2256348634421331 0  -0.5 0.2165173209784076 0  -0.5 0.207422087829958 0  -0.5 0.1983491207029381 0  -0.5 0.1892983550950482 0  -0.5 0.1802697378305253 0  -0.5 0.1712632154965152 0  -0.5 0.1622787344187354 0  -0.5 0.1533162406595534 0  -0.5 0.1443756800160514 0  -0.5 0.1354569980180493 0  -0.5 0.1265601399261414 0  -0.5 0.1176850622761093 0  -0.5 0.1088317009011999 0  -0.5 0.09167500000001694 0  -0.5 0.08335000000003931 0  -0.5 0.07502500000006167 0  -0.5 0.06670000000008947 0  -0.5 0.05837500000011001 0  -0.5 0.0500500000001328 0  -0.5 0.0417250000001127 0  -0.5 0.03340000000008944 0  -0.5 0.02507500000006573 0  -0.5 0.01675000000004653 0  -0.5 0.008425000000027341 
[...]
<PointData  Vectors="f_20"> 
<DataArray  type="Float64"  Name="f_20"  NumberOfComponents="3" format="ascii">-6.8971789404308431e-04 2.3531470643217427e-03 0.0000000000000000e+00  0.0000000000000000e+00 0.0000000000000000e+00 0.0000000000000000e+00  0.0000000000000000e+00 0.0000000000000000e+00 0.0000000000000000e+00  -1.3825844362294296e-03 2.4585818400750916e-03 0.0000000000000000e+00  -9.5138299881864690e-04 4.8999999999999998e-03 0.0000000000000000e+00  2.5809463209966232e-04 4.8999999999999998e-03 0.0000000000000000e+00  -3.3967716809871201e-04 5.1260094509077191e-03 0.0000000000000000e+00  -2.6829261922253230e-04 -1.3991490819174275e-04 0.0000000000000000e+00  -1.3491459741345386e-03 2.8256411024239069e-03 0.0000000000000000e+00  -1.3064354218277391e-03 2.1004176770171670e-03 0.0000000000000000e+00  -1.7134463627848783e-04 -1.3901001571071998e-04 0.0000000000000000e+00  -1.8600992087566321e-04 5.1254203397591508e-03 0.0000000000000000e+00  0.0000000000000000e+00 0.0000000000000000e+00 0.0000000000000000e+00  0.0000000000000000e+00 0.0000000000000000e+00 0.0000000000000000e+00  0.0000000000000000e+00 0.0000000000000000e+00 0.0000000000000000e+00  0.0000000000000000e+00 0.0000000000000000e+00 0.0000000000000000e+00  0.0000000000000000e+00 0.0000000000000000e+00 0.0000000000000000e+00  0.0000000000000000e+00 0.0000000000000000e+00 0.0000000000000000e+00  0.0000000000000000e+00 0.0000000000000000e+00 0.0000000000000000e+00  0.0000000000000000e+00 0.0000000000000000e+00 0.0000000000000000e+00  0.0000000000000000e+00 0.0000000000000000e+00 0.0000000000000000e+00  0.0000000000000000e+00 0.0000000000000000e+00 0.0000000000000000e+00  0.0000000000000000e+00 0.0000000000000000e+00 0.0000000000000000e+00  0.0000000000000000e+00 0.0000000000000000e+00 0.0000000000000000e+00  0.0000000000000000e+00 0.0000000000000000e+00 0.0000000000000000e+00  0.0000000000000000e+00 0.0000000000000000e+00 0.0000000000000000e+00  0.0000000000000000e+00 0.0000000000000000e+00 0.0000000000000000e+00  0.0000000000000000e+00 0.0000000000000000e+00 0.0000000000000000e+00  0.0000000000000000e+00 0.0000000000000000e+00 0.0000000000000000e+00  0.0000000000000000e+00 0.0000000000000000e+00 0.0000000000000000e+00  0.0000000000000000e+00 0.0000000000000000e+00 0.0000000000000000e+00  0.0000000000000000e+00 0.0000000000000000e+00 0.0000000000000000e+00  0.0000000000000000e+00 0.0000000000000000e+00 0.0000000000000000e+00  0.0000000000000000e+00 0.0000000000000000e+00 0.0000000000000000e+00  0.0000000000000000e+00 0.0000000000000000e+00 0.0000000000000000e+00  0.0000000000000000e+00 0.0000000000000000e+00 0.0000000000000000e+00  0.0000000000000000e+00 0.0000000000000000e+00 0.0000000000000000e+00  0.0000000000000000e+00 0.0000000000000000e+00 0.0000000000000000e+00  0.0000000000000000e+00 0.0000000000000000e+00 0.0000000000000000e+00  0.0000000000000000e+00 0.0000000000000000e+00 0.0000000000000000e+00  0.0000000000000000e+00 0.0000000000000000e+00 0.0000000000000000e+00  0.0000000000000000e+00 0.0000000000000000e+00 0.0000000000000000e+00  0.0000000000000000e+00 0.0000000000000000e+00 0.0000000000000000e+00  0.0000000000000000e+00 0.0000000000000000e+00 0.0000000000000000e+00  0.0000000000000000e+00 0.0000000000000000e+00 0.0000000000000000e+00  0.0000000000000000e+00 0.0000000000000000e+00 0.0000000000000000e+00  0.0000000000000000e+00 0.0000000000000000e+00 0.0000000000000000e+00  0.0000000000000000e+00 0.0000000000000000e+00 0.0000000000000000e+00  0.0000000000000000e+00 0.0000000000000000e+00 0.0000000000000000e+00  0.0000000000000000e+00 0.0000000000000000e+00 0.0000000000000000e+00  0.0000000000000000e+00 0.0000000000000000e+00 0.0000000000000000e+00  0.0000000000000000e+00 0.0000000000000000e+00 0.0000000000000000e+00  0.0000000000000000e+00 0.0000000000000000e+00 0.0000000000000000e+00  0.0000000000000000e+00 0.0000000000000000e+00 0.0000000000000000e+00  0.0000000000000000e+00 0.0000000000000000e+00 0.0000000000000000e+00  0.0000000000000000e+00 0.0000000000000000e+00 0.0000000000000000e+00  0.0000000000000000e+00 0.0000000000000000e+00 0.0000000000000000e+00  0.0000000000000000e+00 0.0000000000000000e+00 0.0000000000000000e+00  0.0000000000000000e+00 0.0000000000000000e+00 0.0000000000000000e+00  0.0000000000000000e+00 0.0000000000000000e+00 0.0000000000000000e+00  0.0000000000000000e+00 0.0000000000000000e+00 0.0000000000000000e+00  0.0000000000000000e+00 0.0000000000000000e+00 0.0000000000000000e+00  0.0000000000000000e+00 0.0000000000000000e+00 0.0000000000000000e+00  0.0000000000000000e+00 0.0000000000000000e+00 0.0000000000000000e+00  0.0000000000000000e+00 0.0000000000000000e+00 0.0000000000000000e+00  0.0000000000000000e+00 0.0000000000000000e+00 0.0000000000000000e+00  0.0000000000000000e+00 0.0000000000000000e+00 0.0000000000000000e+00  0.0000000000000000e+00 0.0000000000000000e+00 0.0000000000000000e+00  0.0000000000000000e+00 0.0000000000000000e+00 0.0000000000000000e+00  0.0000000000000000e+00 0.0000000000000000e+00 0.0000000000000000e+00  0.0000000000000000e+00 0.0000000000000000e+00 0.0000000000000000e+00  0.0000000000000000e+00 0.0000000000000000e+00 0.0000000000000000e+00  0.0000000000000000e+00 0.0000000000000000e+00 0.0000000000000000e+00  0.0000000000000000e+00 0.0000000000000000e+00 0.0000000000000000e+00  0.0000000000000000e+00 0.0000000000000000e+00 0.0000000000000000e+00  0.0000000000000000e+00 0.0000000000000000e+00 0.0000000000000000e+00  0.0000000000000000e+00 0.0000000000000000e+00 0.0000000000000000e+00  0.0000000000000000e+00 0.0000000000000000e+00 0.0000000000000000e+00  0.0000000000000000e+00 0.0000000000000000e+00 0.0000000000000000e+00  0.0000000000000000e+00 0.0000000000000000e+00 0.0000000000000000e+00  0.0000000000000000e+00 0.0000000000000000e+00 0.0000000000000000e+00  0.0000000000000000e+00 0.0000000000000000e+00 0.0000000000000000e+00  0.0000000000000000e+00 0.0000000000000000e+00 0.0000000000000000e+00  0.0000000000000000e+00 0.0000000000000000e+00 0.0000000000000000e+00  0.0000000000000000e+00 0.0000000000000000e+00 0.0000000000000000e+00  0.0000000000000000e+00 0.0000000000000000e+00 0.0000000000000000e+00  0.0000000000000000e+00 0.0000000000000000e+00 0.0000000000000000e+00  0.0000000000000000e+00 0.0000000000000000e+00 0.0000000000000000e+00  0.0000000000000000e+00 0.0000000000000000e+00 0.0000000000000000e+00  0.0000000000000000e+00 0.0000000000000000e+00 0.0000000000000000e+00  0.0000000000000000e+00 0.0000000000000000e+00 0.0000000000000000e+00  0.0000000000000000e+00 0.0000000000000000e+00 0.0000000000000000e+00  0.0000000000000000e+00 0.0000000000000000e+00 0.0000000000000000e+00  0.0000000000000000e+00 0.0000000000000000e+00 0.0000000000000000e+00  0.0000000000000000e+00 0.0000000000000000e+00 0.0000000000000000e+00  0.0000000000000000e+00 0.0000000000000000e+00 0.0000000000000000e+00  0.0000000000000000e+00 0.0000000000000000e+00 0.0000000000000000e+00  0.0000000000000000e+00 0.0000000000000000e+00 0.0000000000000000e+00  0.0000000000000000e+00 0.0000000000000000e+00 0.0000000000000000e+00  0.0000000000000000e+00 0.0000000000000000e+00 0.0000000000000000e+00  0.0000000000000000e+00 0.0000000000000000e+00 0.0000000000000000e+00  0.0000000000000000e+00 0.0000000000000000e+00 0.0000000000000000e+00  0.0000000000000000e+00 0.0000000000000000e+00 0.0000000000000000e+00  0.0000000000000000e+00 0.0000000000000000e+00 0.0000000000000000e+00  0.0000000000000000e+00 0.0000000000000000e+00 0.0000000000000000e+00  0.0000000000000000e+00 0.0000000000000000e+00 0.0000000000000000e+00  0.0000000000000000e+00 0.0000000000000000e+00 0.0000000000000000e+00  0.0000000000000000e+00 0.0000000000000000e+00 0.0000000000000000e+00  0.0000000000000000e+00 0.0000000000000000e+00 0.0000000000000000e+00  0.0000000000000000e+00 0.0000000000000000e+00 0.0000000000000000e+00  0.0000000000000000e+00 0.0000000000000000e+00 0.0000000000000000e+00  -1.2673186773161908e-04 1.3261228978849249e-04 0.0000000000000000e+00  -2.0679692839176725e-04 2.2765732750445550e-04 0.0000000000000000e+00  -2.7136575589225940e-04 3.0795900831180996e-04 0.0000000000000000e+00  -3.2737511581188767e-04 3.7950270706886042e-04 0.0000000000000000e+00  -3.7726742196811586e-04 4.4526469225497856e-04 0.0000000000000000e+00  -4.2285221598138223e-04 5.0711491394185462e-04 0.0000000000000000e+00  -4.6551255752764922e-04 5.6601149456095854e-04 0.0000000000000000e+00  -5.0478158683860933e-04 6.2275100346310735e-04 0.0000000000000000e+00  -5.4173023896571021e-04 6.7777659113073859e-04 0.0000000000000000e+00  -5.7716959598966787e-04 7.3117138635605888e-04 0.0000000000000000e+00  -6.1082008815628781e-04 7.8354028546713419e-04 0.0000000000000000e+00  -6.4319443292949220e-04 8.3458351111759309e-04 0.0000000000000000e+00  -6.7415967486696930e-04 8.8496868504190480e-04 0.0000000000000000e+00  -7.0427838753777609e-04 9.3419981898424124e-04 0.0000000000000000e+00  -7.3338315542787217e-04 9.8290070651914450e-04 0.0000000000000000e+00  -7.6189146199707168e-04 1.0307598951139418e-03 0.0000000000000000e+00  -7.8940028353854800e-04 1.0779212046414315e-03 0.0000000000000000e+00  -8.1627491939129787e-04 1.1243483466440943e-03 0.0000000000000000e+00  -8.4266274015913319e-04 1.1703446612251465e-03 0.0000000000000000e+00  -8.6831574500781687e-04 1.2155616460062333e-03 0.0000000000000000e+00  -8.9341975366401282e-04 1.2602400181621674e-03 0.0000000000000000e+00  -9.1800223910417072e-04 1.3043605663400049e-03 0.0000000000000000e+00  -9.4207559379998716e-04 1.3478792669114766e-03 0.0000000000000000e+00  -9.6563746841093134e-04 1.3908415327807142e-03 0.0000000000000000e+00  -9.8869893585381207e-04 1.4331722894743537e-03 0.0000000000000000e+00  -1.0112527982010090e-03 1.4749113314038939e-03 0.0000000000000000e+00  -1.0333279765704869e-03 1.5159824339311951e-03 0.0000000000000000e+00  -1.0550376173011069e-03 1.5566844113677010e-03 0.0000000000000000e+00  -1.0760487641543136e-03 1.5967207555591762e-03 0.0000000000000000e+00  -1.0965186032191572e-03 1.6361757556537042e-03 0.0000000000000000e+00  -1.1164665424632557e-03 1.6751178221398972e-03 0.0000000000000000e+00  -1.1359196962534472e-03 1.7134220611820798e-03 0.0000000000000000e+00  -1.1547038986978162e-03 1.7511744851600966e-03 0.0000000000000000e+00  -1.1729702339011465e-03 1.7882933969480372e-03 0.0000000000000000e+00  -1.1906121983562207e-03 1.8250126041954877e-03 0.0000000000000000e+00  -1.2075126829291945e-03 1.8611608430729163e-03 0.0000000000000000e+00  -1.2237816472762039e-03 1.8968001848995867e-03 0.0000000000000000e+00  -1.2394363859767827e-03 1.9317902702971816e-03 0.0000000000000000e+00  -1.2542610818584115e-03 1.9664382110783684e-03 0.0000000000000000e+00  -1.2684731441453669e-03 2.0005645153248074e-03 0.0000000000000000e+00  -1.2818612404100495e-03 2.0343214578580093e-03 0.0000000000000000e+00  -1.2945294700784356e-03 2.0675024428704596e-03 0.0000000000000000e+00  -1.3168430252836526e-03 2.1311358670219774e-03 0.0000000000000000e+00  -1.3266154211288336e-03 2.1615245064538859e-03 0.0000000000000000e+00  -1.3356253946921479e-03 2.1918494578063415e-03 0.0000000000000000e+00  -1.3439311257173155e-03 2.2218090026439622e-03 0.0000000000000000e+00  -1.3515268704061862e-03 2.2517829916337924e-03 0.0000000000000000e+00  -1.3582520670973480e-03 2.2816457360545581e-03 0.0000000000000000e+00  -1.3642943491837757e-03 2.3111695954163266e-03 0.0000000000000000e+00  -1.3695337511837890e-03 2.3407009180059306e-03 0.0000000000000000e+00  -1.3740021663293746e-03 2.3702177451324982e-03 0.0000000000000000e+00  -1.3775517513044809e-03 2.3997530671791044e-03 0.0000000000000000e+00  -1.3804645273468551e-03 2.4291104157117675e-03 0.0000000000000000e+00  -1.3838090631297306e-03 2.4881108833430996e-03 0.0000000000000000e+00  -1.3842942109647044e-03 2.5176808789638418e-03 0.0000000000000000e+00  -1.3840363897942921e-03 2.5475042767999401e-03 0.0000000000000000e+00  -1.3830015971033670e-03 2.5773074137683950e-03 0.0000000000000000e+00  -1.3812381825048586e-03 2.6074562838728070e-03 0.0000000000000000e+00  -1.3787085931487595e-03 2.6378515639640192e-03 0.0000000000000000e+00  -1.3754056696551500e-03 2.6683069917886092e-03 0.0000000000000000e+00  -1.3714881572585449e-03 2.6991515877673455e-03 0.0000000000000000e+00  -1.3669254929356452e-03 2.7303281487822059e-03 0.0000000000000000e+00  -1.3615384314594693e-03 2.7618207910224588e-03 0.0000000000000000e+00  -1.3556478240340649e-03 2.7934931966166147e-03 0.0000000000000000e+00  -1.3415416830213191e-03 2.8602187895309149e-03 0.0000000000000000e+00  -1.3333112301139496e-03 2.8952523745410861e-03 0.0000000000000000e+00  -1.3245121900797156e-03 2.9309971206764249e-03 0.0000000000000000e+00  -1.3150844255872627e-03 2.9672563585072084e-03 0.0000000000000000e+00  -1.3052865266354678e-03 3.0042075815873291e-03 0.0000000000000000e+00  -1.2948208919047936e-03 3.0416973209926573e-03 0.0000000000000000e+00  -1.2839943780464131e-03 3.0799657253225182e-03 0.0000000000000000e+00  -1.2727208567770358e-03 3.1189385036933192e-03 0.0000000000000000e+00  -1.2610758416913973e-03 3.1586515933755728e-03 0.0000000000000000e+00  -1.2490297398714848e-03 3.1989859459816781e-03 0.0000000000000000e+00  -1.2368377975486087e-03 3.2401028746090973e-03 0.0000000000000000e+00  -1.2243274389942141e-03 3.2819591469393930e-03 0.0000000000000000e+00  -1.2116893576552697e-03 3.3245745401250287e-03 0.0000000000000000e+00  -1.1989311299723177e-03 3.3679617814353587e-03 0.0000000000000000e+00  -1.1860565796900494e-03 3.4121089413424715e-03 0.0000000000000000e+00  -1.1730539357272603e-03 3.4570013620790815e-03 0.0000000000000000e+00  -1.1600677580980089e-03 3.5025604330876565e-03 0.0000000000000000e+00  -1.1471998510268213e-03 3.5489043702647263e-03 0.0000000000000000e+00  -1.1344362597025214e-03 3.5959618263735004e-03 0.0000000000000000e+00  -1.1217949260095268e-03 3.6437593871745094e-03 0.0000000000000000e+00  -1.1093402821518875e-03 3.6923044455217540e-03 0.0000000000000000e+00  -1.0970300765875208e-03 3.7415737733524838e-03 0.0000000000000000e+00  -1.0851132789996877e-03 3.7914728446193213e-03 0.0000000000000000e+00  -1.0733985002506481e-03 3.8420957776118102e-03 0.0000000000000000e+00  -1.0621086615816909e-03 3.8933019583519955e-03 0.0000000000000000e+00  -1.0511441087809336e-03 3.9452090988236418e-03 0.0000000000000000e+00  -1.0406008752029067e-03 3.9977240516558508e-03 0.0000000000000000e+00  -1.0305311184164881e-03 4.0507492418590564e-03 0.0000000000000000e+00  -1.0209588010615419e-03 4.1043335674140055e-03 0.0000000000000000e+00  -1.0118385559191201e-03 4.1585699401921576e-03 0.0000000000000000e+00  -1.0033630029694486e-03 4.2131551772545232e-03 0.0000000000000000e+00  -9.9535452193193772e-04 4.2683582862265805e-03 0.0000000000000000e+00  -9.8799705265913314e-04 4.3239943341049454e-03 0.0000000000000000e+00  -9.8124354389455756e-04 4.3802075179724424e-03 0.0000000000000000e+00  -9.7513867434359102e-04 4.4366530594254416e-03 0.0000000000000000e+00  -9.6967561038421705e-04 4.4934826569803668e-03 0.0000000000000000e+00  -9.6492665391615122e-04 4.5507684847289169e-03 0.0000000000000000e+00  -9.6086795143483187e-04 4.6083005961534973e-03 0.0000000000000000e+00  -9.5753342429304199e-04 4.6661721683819461e-03 0.0000000000000000e+00  -9.5484871288577483e-04 4.7243298442685867e-03 0.0000000000000000e+00  -9.5314152962640308e-04 4.7827229133084685e-03 0.0000000000000000e+00  -9.5188933513541273e-04 4.8412633080292065e-03 0.0000000000000000e+00  -9.2597042178672981e-04 4.8999999999999998e-03 0.0000000000000000e+00  -9.0067248440894626e-04 4.8999999999999998e-03 0.0000000000000000e+00  -8.7568967518055092e-04 4.8999999999999998e-03 0.0000000000000000e+00  -8.5091237975102425e-04 4.8999999999999998e-03 0.0000000000000000e+00  -8.2625520195208138e-04 4.8999999999999998e-03 0.0000000000000000e+00  -8.0193612977750108e-04 4.8999999999999998e-03 0.0000000000000000e+00  -7.7766032129268474e-04 4.8999999999999998e-03 0.0000000000000000e+00  -7.5347683001989493e-04 4.8999999999999998e-03 0.0000000000000000e+00  -7.2933608208018664e-04 4.8999999999999998e-03 0.0000000000000000e+00  -7.0543946964789087e-04 4.8999999999999998e-03 0.0000000000000000e+00  -6.8150157421286058e-04 4.8999999999999998e-03 0.0000000000000000e+00  -6.5761802418308046e-04 4.8999999999999998e-03 0.0000000000000000e+00  -6.3377820149796500e-04 4.8999999999999998e-03 0.0000000000000000e+00  -6.0999719934367561e-04 4.8999999999999998e-03 0.0000000000000000e+00  -5.8625653951795414e-04 4.8999999999999998e-03 0.0000000000000000e+00  -5.6248426794501300e-04 4.8999999999999998e-03 0.0000000000000000e+00  -5.3873287827629608e-04 4.8999999999999998e-03 0.0000000000000000e+00  -5.1502560967709701e-04 4.8999999999999998e-03 0.0000000000000000e+00  -4.9135541325277322e-04 4.8999999999999998e-03 0.0000000000000000e+00  -4.6771251794197486e-04 4.8999999999999998e-03 0.0000000000000000e+00  -4.4411503939737260e-04 4.8999999999999998e-03 0.0000000000000000e+00  -4.2056436096291663e-04 4.8999999999999998e-03 0.0000000000000000e+00  -3.9707729113920944e-04 4.8999999999999998e-03 0.0000000000000000e+00  -3.7368756334530171e-04 4.8999999999999998e-03 0.0000000000000000e+00  -3.5035474596918577e-04 4.8999999999999998e-03 0.0000000000000000e+00  -3.2714602102691068e-04 4.8999999999999998e-03 0.0000000000000000e+00  -3.0408792927260394e-04 4.8999999999999998e-03 0.0000000000000000e+00  -2.8114363368554482e-04 4.8999999999999998e-03 0.0000000000000000e+00  -2.5844901046120488e-04 4.8999999999999998e-03 0.0000000000000000e+00  -2.3594270726455939e-04 4.8999999999999998e-03 0.0000000000000000e+00  -2.1363668239095663e-04 4.8999999999999998e-03 0.0000000000000000e+00  -1.9161711614077808e-04 4.8999999999999998e-03 0.0000000000000000e+00  -1.6985212649860975e-04 4.8999999999999998e-03 0.0000000000000000e+00  -1.4830505372570568e-04 4.8999999999999998e-03 0.0000000000000000e+00  -1.2724337757219603e-04 4.8999999999999998e-03 0.0000000000000000e+00  -1.0645957257869121e-04 4.8999999999999998e-03 0.0000000000000000e+00  -8.6063665096196778e-05 4.8999999999999998e-03 0.0000000000000000e+00  -6.6083066796900311e-05 4.8999999999999998e-03 0.0000000000000000e+00  -4.6436673988245552e-05 4.8999999999999998e-03 0.0000000000000000e+00  -2.7336561098871786e-05 4.8999999999999998e-03 0.0000000000000000e+00  -8.7434048903807029e-06 4.8999999999999998e-03 0.0000000000000000e+00  9.3071916071584512e-06 4.8999999999999998e-03 0.0000000000000000e+00  2.6910134538339194e-05 4.8999999999999998e-03 0.0000000000000000e+00  4.4048128118644982e-05 4.8999999999999998e-03 0.0000000000000000e+00  6.0477722706347265e-05 4.8999999999999998e-03 0.0000000000000000e+00  7.6466956948510934e-05 4.8999999999999998e-03 0.0000000000000000e+00  9.1886714382624055e-05 4.8999999999999998e-03 0.0000000000000000e+00  1.0649714790972083e-04 4.8999999999999998e-03 0.0000000000000000e+00  1.2061219788167061e-04 4.8999999999999998e-03 0.0000000000000000e+00  1.3422014143923158e-04 4.8999999999999998e-03 0.0000000000000000e+00  1.4717177660931964e-04 4.8999999999999998e-03 0.0000000000000000e+00  1.5940425113820757e-04 4.8999999999999998e-03 0.0000000000000000e+00  1.7103109602669480e-04 4.8999999999999998e-03 0.0000000000000000e+00  1.8213017883431871e-04 4.8999999999999998e-03 0.0000000000000000e+00  1.9253523665721021e-04 4.8999999999999998e-03 0.0000000000000000e+00  2.0231534750734804e-04 4.8999999999999998e-03 0.0000000000000000e+00  2.1154295787872808e-04 4.8999999999999998e-03 0.0000000000000000e+00  2.2023741009581218e-04 4.8999999999999998e-03 0.0000000000000000e+00  2.2817609731139965e-04 4.8999999999999998e-03 0.0000000000000000e+00  2.3566987668155925e-04 4.8999999999999998e-03 0.0000000000000000e+00  2.4256919422492620e-04 4.8999999999999998e-03 0.0000000000000000e+00  2.4892706919043086e-04 4.8999999999999998e-03 0.0000000000000000e+00  2.5470097265836358e-04 4.8999999999999998e-03 0.0000000000000000e+00  2.6007741350196178e-04 4.8999999999999998e-03 0.0000000000000000e+00  2.6499687822267984e-04 4.8999999999999998e-03 0.0000000000000000