<?xml version="1.0"?>
<VTKFile type="UnstructuredGrid"  version="0.1"  >
<UnstructuredGrid>
<Piece  NumberOfPoints="15540" NumberOfCells="30546">
<Points>
<DataArray  type="Float64"  NumberOfComponents="3"  format="ascii">0 0 0  -0.5 -0.5 0  0.5 -0.5 0  0.5 0 0  0.5 0.5 0  -0.5 0.5 0  -0.5 0.0001 0  -0.5 -0.0001 0  0.5 0.1 0  0.5 -0.1 0  -0.5 -0.1 0  -0.5 0.1 0  -0.4900000000000277 -0.5 0  -0.4800000000000555 -0.5 0  -0.4700000000000832 -0.5 0  -0.4600000000001109 -0.5 0  -0.4500000000001387 -0.5 0  -0.4400000000001664 -0.5 0  -0.4300000000001942 -0.5 0  -0.4200000000002219 -0.5 0  -0.4100000000002497 -0.5 0  -0.4000000000002774 -0.5 0  -0.3900000000003052 -0.5 0  -0.3800000000003328 -0.5 0  -0.3700000000003606 -0.5 0  -0.3600000000003883 -0.5 0  -0.3500000000004161 -0.5 0  -0.3400000000004438 -0.5 0  -0.3300000000004716 -0.5 0  -0.3200000000004993 -0.5 0  -0.3100000000005271 -0.5 0  -0.3000000000005548 -0.5 0  -0.2900000000005825 -0.5 0  -0.2800000000006103 -0.5 0  -0.2700000000006381 -0.5 0  -0.2600000000006658 -0.5 0  -0.2500000000006935 -0.5 0  -0.2400000000007212 -0.5 0  -0.230000000000749 -0.5 0  -0.2200000000007767 -0.5 0  -0.2100000000008044 -0.5 0  -0.2000000000008322 -0.5 0  -0.19000000000086 -0.5 0  -0.1800000000008877 -0.5 0  -0.1700000000009154 -0.5 0  -0.1600000000009431 -0.5 0  -0.1500000000009709 -0.5 0  -0.1400000000009986 -0.5 0  -0.1300000000010264 -0.5 0  -0.1200000000010541 -0.5 0  -0.1100000000010818 -0.5 0  -0.1000000000011096 -0.5 0  -0.09000000000113734 -0.5 0  -0.08000000000116503 -0.5 0  -0.07000000000119283 -0.5 0  -0.06000000000122058 -0.5 0  -0.05000000000124827 -0.5 0  -0.04000000000127607 -0.5 0  -0.03000000000130376 -0.5 0  -0.02000000000133151 -0.5 0  -0.01000000000135925 -0.5 0  -1.376121439022882e-12 -0.5 0  0.009999999998640763 -0.5 0  0.01999999999866864 -0.5 0  0.02999999999869629 -0.5 0  0.03999999999872406 -0.5 0  0.04999999999875182 -0.5 0  0.05999999999877947 -0.5 0  0.06999999999880724 -0.5 0  0.079999999998835 -0.5 0  0.08999999999886266 -0.5 0  0.09999999999889042 -0.5 0  0.1099999999989182 -0.5 0  0.1199999999989459 -0.5 0  0.1299999999989737 -0.5 0  0.1399999999990014 -0.5 0  0.1499999999990291 -0.5 0  0.1599999999990568 -0.5 0  0.1699999999990847 -0.5 0  0.1799999999991124 -0.5 0  0.1899999999991401 -0.5 0  0.1999999999991678 -0.5 0  0.2099999999991955 -0.5 0  0.2199999999992234 -0.5 0  0.2299999999992511 -0.5 0  0.2399999999992788 -0.5 0  0.2499999999993066 -0.5 0  0.2599999999993342 -0.5 0  0.269999999999362 -0.5 0  0.2799999999993897 -0.5 0  0.2899999999994175 -0.5 0  0.2999999999994452 -0.5 0  0.3099999999994729 -0.5 0  0.3199999999995007 -0.5 0  0.3299999999995284 -0.5 0  0.3399999999995562 -0.5 0  0.3499999999995839 -0.5 0  0.3599999999996116 -0.5 0  0.3699999999996393 -0.5 0  0.379999999999667 -0.5 0  0.3899999999996949 -0.5 0  0.3999999999997226 -0.5 0  0.4099999999997503 -0.5 0  0.419999999999778 -0.5 0  0.4299999999998058 -0.5 0  0.4399999999998336 -0.5 0  0.4499999999998613 -0.5 0  0.4599999999998891 -0.5 0  0.4699999999999167 -0.5 0  0.4799999999999445 -0.5 0  0.4899999999999722 -0.5 0  0.5 -0.4902110204681464 0  0.5 -0.4804459958734807 0  0.5 -0.4707048677450883 0  0.5 -0.4609875815766065 0  0.5 -0.4512940759251849 0  0.5 -0.4416242912883993 0  0.5 -0.4319781678689807 0  0.5 -0.4223556545383647 0  0.5 -0.4127566896324213 0  0.5 -0.4031812128200121 0  0.5 -0.3936291733057916 0  0.5 -0.3841005081172659 0  0.5 -0.3745951585781932 0  0.5 -0.3651130778999337 0  0.5 -0.3556541993788045 0  0.5 -0.3462184677228392 0  0.5 -0.3368058273705318 0  0.5 -0.3274162224888609 0  0.5 -0.3180495969712945 0  0.5 -0.3087058944357755 0  0.5 -0.299385058222682 0  0.5 -0.2900870313927414 0  0.5 -0.2808117567250807 0  0.5 -0.2715591844628491 0  0.5 -0.2623292564012653 0  0.5 -0.253121909553727 0  0.5 -0.2439371050851549 0  0.5 -0.2347747685524501 0  0.5 -0.2256348634421331 0  0.5 -0.2165173209784076 0  0.5 -0.207422087829958 0  0.5 -0.1983491207029381 0  0.5 -0.1892983550950482 0  0.5 -0.1802697378305253 0  0.5 -0.1712632154965152 0  0.5 -0.1622787344187354 0  0.5 -0.1533162406595534 0  0.5 -0.1443756800160514 0  0.5 -0.1354569980180493 0  0.5 -0.1265601399261414 0  0.5 -0.1176850622761093 0  0.5 -0.1088317009011999 0  0.5 -0.09166666666668973 0  0.5 -0.08333333333337943 0  0.5 -0.07500000000006915 0  0.5 -0.06666666666675886 0  0.5 -0.05833333333344858 0  0.5 -0.05000000000013693 0  0.5 -0.04166666666678191 0  0.5 -0.03333333333342643 0  0.5 -0.02500000000006916 0  0.5 -0.01666666666671188 0  0.5 -0.00833333333335548 0  0.5 0.008333333333318314 0  0.5 0.01666666666663358 0  0.5 0.02499999999994162 0  0.5 0.03333333333325101 0  0.5 0.04166666666655769 0  0.5 0.04999999999986843 0  0.5 0.05833333333322258 0  0.5 0.06666666666657715 0  0.5 0.07499999999993352 0  0.5 0.08333333333328992 0  0.5 0.09166666666664541 0  0.5 0.1088317009011616 0  0.5 0.1176850622760307 0  0.5 0.1265601399260203 0  0.5 0.1354569980178909 0  0.5 0.1443756800158549 0  0.5 0.153316240659315 0  0.5 0.1622787344184454 0  0.5 0.1712632154961752 0  0.5 0.1802697378301332 0  0.5 0.1892983550946039 0  0.5 0.1983491207024433 0  0.5 0.2074220878294123 0  0.5 0.216517320977811 0  0.5 0.2256348634414833 0  0.5 0.2347747685517479 0  0.5 0.2439371050844009 0  0.5 0.2531219095529224 0  0.5 0.2623292564004089 0  0.5 0.2715591844619371 0  0.5 0.2808117567241139 0  0.5 0.290087031391723 0  0.5 0.2993850582216101 0  0.5 0.3087058944347426 0  0.5 0.3180495969703129 0  0.5 0.3274162224879299 0  0.5 0.3368058273696494 0  0.5 0.3462184677220051 0  0.5 0.3556541993780186 0  0.5 0.3651130778991989 0  0.5 0.3745951585775107 0  0.5 0.3841005081166359 0  0.5 0.3936291733052134 0  0.5 0.4031812128194852 0  0.5 0.412756689631945 0  0.5 0.4223556545379392 0  0.5 0.431978167868607 0  0.5 0.4416242912880781 0  0.5 0.4512940759249164 0  0.5 0.4609875815763912 0  0.5 0.4707048677449264 0  0.5 0.4804459958733726 0  0.5 0.4902110204680924 0  0.4900000000000277 0.5 0  0.4800000000000555 0.5 0  0.4700000000000832 0.5 0  0.4600000000001109 0.5 0  0.4500000000001387 0.5 0  0.4400000000001664 0.5 0  0.4300000000001942 0.5 0  0.4200000000002219 0.5 0  0.4100000000002497 0.5 0  0.4000000000002774 0.5 0  0.3900000000003052 0.5 0  0.3800000000003328 0.5 0  0.3700000000003606 0.5 0  0.3600000000003883 0.5 0  0.3500000000004161 0.5 0  0.3400000000004438 0.5 0  0.3300000000004716 0.5 0  0.3200000000004993 0.5 0  0.3100000000005271 0.5 0  0.3000000000005548 0.5 0  0.2900000000005825 0.5 0  0.2800000000006103 0.5 0  0.2700000000006381 0.5 0  0.2600000000006658 0.5 0  0.2500000000006935 0.5 0  0.2400000000007212 0.5 0  0.230000000000749 0.5 0  0.2200000000007767 0.5 0  0.2100000000008044 0.5 0  0.2000000000008322 0.5 0  0.19000000000086 0.5 0  0.1800000000008877 0.5 0  0.1700000000009154 0.5 0  0.1600000000009431 0.5 0  0.1500000000009709 0.5 0  0.1400000000009986 0.5 0  0.1300000000010264 0.5 0  0.1200000000010541 0.5 0  0.1100000000010818 0.5 0  0.1000000000011096 0.5 0  0.09000000000113734 0.5 0  0.08000000000116503 0.5 0  0.07000000000119283 0.5 0  0.06000000000122058 0.5 0  0.05000000000124827 0.5 0  0.04000000000127607 0.5 0  0.03000000000130376 0.5 0  0.02000000000133151 0.5 0  0.01000000000135925 0.5 0  1.376121439022882e-12 0.5 0  -0.009999999998640763 0.5 0  -0.01999999999866864 0.5 0  -0.02999999999869629 0.5 0  -0.03999999999872406 0.5 0  -0.04999999999875182 0.5 0  -0.05999999999877947 0.5 0  -0.06999999999880724 0.5 0  -0.079999999998835 0.5 0  -0.08999999999886266 0.5 0  -0.09999999999889042 0.5 0  -0.1099999999989182 0.5 0  -0.1199999999989459 0.5 0  -0.1299999999989737 0.5 0  -0.1399999999990014 0.5 0  -0.1499999999990291 0.5 0  -0.1599999999990568 0.5 0  -0.1699999999990847 0.5 0  -0.1799999999991124 0.5 0  -0.1899999999991401 0.5 0  -0.1999999999991678 0.5 0  -0.2099999999991955 0.5 0  -0.2199999999992234 0.5 0  -0.2299999999992511 0.5 0  -0.2399999999992788 0.5 0  -0.2499999999993066 0.5 0  -0.2599999999993342 0.5 0  -0.269999999999362 0.5 0  -0.2799999999993897 0.5 0  -0.2899999999994175 0.5 0  -0.2999999999994452 0.5 0  -0.3099999999994729 0.5 0  -0.3199999999995007 0.5 0  -0.3299999999995284 0.5 0  -0.3399999999995562 0.5 0  -0.3499999999995839 0.5 0  -0.3599999999996116 0.5 0  -0.3699999999996393 0.5 0  -0.379999999999667 0.5 0  -0.3899999999996949 0.5 0  -0.3999999999997226 0.5 0  -0.4099999999997503 0.5 0  -0.419999999999778 0.5 0  -0.4299999999998058 0.5 0  -0.4399999999998336 0.5 0  -0.4499999999998613 0.5 0  -0.4599999999998891 0.5 0  -0.4699999999999167 0.5 0  -0.4799999999999445 0.5 0  -0.4899999999999722 0.5 0  -0.5 0.4902110204681464 0  -0.5 0.4804459958734807 0  -0.5 0.4707048677450883 0  -0.5 0.4609875815766065 0  -0.5 0.4512940759251849 0  -0.5 0.4416242912883993 0  -0.5 0.4319781678689807 0  -0.5 0.4223556545383647 0  -0.5 0.4127566896324213 0  -0.5 0.4031812128200121 0  -0.5 0.3936291733057916 0  -0.5 0.3841005081172659 0  -0.5 0.3745951585781932 0  -0.5 0.3651130778999337 0  -0.5 0.3556541993788045 0  -0.5 0.3462184677228392 0  -0.5 0.3368058273705318 0  -0.5 0.3274162224888609 0  -0.5 0.3180495969712945 0  -0.5 0.3087058944357755 0  -0.5 0.299385058222682 0  -0.5 0.2900870313927414 0  -0.5 0.2808117567250807 0  -0.5 0.2715591844628491 0  -0.5 0.2623292564012653 0  -0.5 0.253121909553727 0  -0.5 0.2439371050851549 0  -0.5 0.2347747685524501 0  -0.5 0.2256348634421331 0  -0.5 0.2165173209784076 0  -0.5 0.207422087829958 0  -0.5 0.1983491207029381 0  -0.5 0.1892983550950482 0  -0.5 0.1802697378305253 0  -0.5 0.1712632154965152 0  -0.5 0.1622787344187354 0  -0.5 0.1533162406595534 0  -0.5 0.1443756800160514 0  -0.5 0.1354569980180493 0  -0.5 0.1265601399261414 0  -0.5 0.1176850622761093 0  -0.5 0.1088317009011999 0  -0.5 0.09167500000001694 0  -0.5 0.08335000000003931 0  -0.5 0.07502500000006167 0  -0.5 0.06670000000008947 0  -0.5 0.05837500000011001 0  -0.5 0.0500500000001328 0  -0.5 0.0417250000001127 0  -0.5 0.03340000000008944 0  -0.5 0.02507500000006573 0  -0.5 0.01675000000004653 0  -0.5 0.008425000000027341 
[...]
<PointData  Vectors="f_20"> 
<DataArray  type="Float64"  Name="f_20"  NumberOfComponents="3" format="ascii">-8.2376642659741047e-04 2.4579864865946249e-03 0.0000000000000000e+00  0.0000000000000000e+00 0.0000000000000000e+00 0.0000000000000000e+00  0.0000000000000000e+00 0.0000000000000000e+00 0.0000000000000000e+00  -1.6080912424816238e-03 2.8097194503361321e-03 0.0000000000000000e+00  -1.0371253020861160e-03 5.5999999999999999e-03 0.0000000000000000e+00  2.2536749199901230e-04 5.5999999999999999e-03 0.0000000000000000e+00  -3.8716083065470816e-04 5.8420391231048495e-03 0.0000000000000000e+00  -3.0712326320190647e-04 -1.5660585069647771e-04 0.0000000000000000e+00  -1.5600199319238278e-03 3.2102505356122082e-03 0.0000000000000000e+00  -1.5144360732627529e-03 2.4181855979737293e-03 0.0000000000000000e+00  -2.0724843179345550e-04 -1.5585633973944906e-04 0.0000000000000000e+00  -2.3257124196814937e-04 5.8415801497489301e-03 0.0000000000000000e+00  0.0000000000000000e+00 0.0000000000000000e+00 0.0000000000000000e+00  0.0000000000000000e+00 0.0000000000000000e+00 0.0000000000000000e+00  0.0000000000000000e+00 0.0000000000000000e+00 0.0000000000000000e+00  0.0000000000000000e+00 0.0000000000000000e+00 0.0000000000000000e+00  0.0000000000000000e+00 0.0000000000000000e+00 0.0000000000000000e+00  0.0000000000000000e+00 0.0000000000000000e+00 0.0000000000000000e+00  0.0000000000000000e+00 0.0000000000000000e+00 0.0000000000000000e+00  0.0000000000000000e+00 0.0000000000000000e+00 0.0000000000000000e+00  0.0000000000000000e+00 0.0000000000000000e+00 0.0000000000000000e+00  0.0000000000000000e+00 0.0000000000000000e+00 0.0000000000000000e+00  0.0000000000000000e+00 0.0000000000000000e+00 0.0000000000000000e+00  0.0000000000000000e+00 0.0000000000000000e+00 0.0000000000000000e+00  0.0000000000000000e+00 0.0000000000000000e+00 0.0000000000000000e+00  0.0000000000000000e+00 0.0000000000000000e+00 0.0000000000000000e+00  0.0000000000000000e+00 0.0000000000000000e+00 0.0000000000000000e+00  0.0000000000000000e+00 0.0000000000000000e+00 0.0000000000000000e+00  0.0000000000000000e+00 0.0000000000000000e+00 0.0000000000000000e+00  0.0000000000000000e+00 0.0000000000000000e+00 0.0000000000000000e+00  0.0000000000000000e+00 0.0000000000000000e+00 0.0000000000000000e+00  0.0000000000000000e+00 0.0000000000000000e+00 0.0000000000000000e+00  0.0000000000000000e+00 0.0000000000000000e+00 0.0000000000000000e+00  0.0000000000000000e+00 0.0000000000000000e+00 0.0000000000000000e+00  0.0000000000000000e+00 0.0000000000000000e+00 0.0000000000000000e+00  0.0000000000000000e+00 0.0000000000000000e+00 0.0000000000000000e+00  0.0000000000000000e+00 0.0000000000000000e+00 0.0000000000000000e+00  0.0000000000000000e+00 0.0000000000000000e+00 0.0000000000000000e+00  0.0000000000000000e+00 0.0000000000000000e+00 0.0000000000000000e+00  0.0000000000000000e+00 0.0000000000000000e+00 0.0000000000000000e+00  0.0000000000000000e+00 0.0000000000000000e+00 0.0000000000000000e+00  0.0000000000000000e+00 0.0000000000000000e+00 0.0000000000000000e+00  0.0000000000000000e+00 0.0000000000000000e+00 0.0000000000000000e+00  0.0000000000000000e+00 0.0000000000000000e+00 0.0000000000000000e+00  0.0000000000000000e+00 0.0000000000000000e+00 0.0000000000000000e+00  0.0000000000000000e+00 0.0000000000000000e+00 0.0000000000000000e+00  0.0000000000000000e+00 0.0000000000000000e+00 0.0000000000000000e+00  0.0000000000000000e+00 0.0000000000000000e+00 0.0000000000000000e+00  0.0000000000000000e+00 0.0000000000000000e+00 0.0000000000000000e+00  0.0000000000000000e+00 0.0000000000000000e+00 0.0000000000000000e+00  0.0000000000000000e+00 0.0000000000000000e+00 0.0000000000000000e+00  0.0000000000000000e+00 0.0000000000000000e+00 0.0000000000000000e+00  0.0000000000000000e+00 0.0000000000000000e+00 0.0000000000000000e+00  0.0000000000000000e+00 0.0000000000000000e+00 0.0000000000000000e+00  0.0000000000000000e+00 0.0000000000000000e+00 0.0000000000000000e+00  0.0000000000000000e+00 0.0000000000000000e+00 0.0000000000000000e+00  0.0000000000000000e+00 0.0000000000000000e+00 0.0000000000000000e+00  0.0000000000000000e+00 0.0000000000000000e+00 0.0000000000000000e+00  0.0000000000000000e+00 0.0000000000000000e+00 0.0000000000000000e+00  0.0000000000000000e+00 0.0000000000000000e+00 0.0000000000000000e+00  0.0000000000000000e+00 0.0000000000000000e+00 0.0000000000000000e+00  0.0000000000000000e+00 0.0000000000000000e+00 0.0000000000000000e+00  0.0000000000000000e+00 0.0000000000000000e+00 0.0000000000000000e+00  0.0000000000000000e+00 0.0000000000000000e+00 0.0000000000000000e+00  0.0000000000000000e+00 0.0000000000000000e+00 0.0000000000000000e+00  0.0000000000000000e+00 0.0000000000000000e+00 0.0000000000000000e+00  0.0000000000000000e+00 0.0000000000000000e+00 0.0000000000000000e+00  0.0000000000000000e+00 0.0000000000000000e+00 0.0000000000000000e+00  0.0000000000000000e+00 0.0000000000000000e+00 0.0000000000000000e+00  0.0000000000000000e+00 0.0000000000000000e+00 0.0000000000000000e+00  0.0000000000000000e+00 0.0000000000000000e+00 0.0000000000000000e+00  0.0000000000000000e+00 0.0000000000000000e+00 0.0000000000000000e+00  0.0000000000000000e+00 0.0000000000000000e+00 0.0000000000000000e+00  0.0000000000000000e+00 0.0000000000000000e+00 0.0000000000000000e+00  0.0000000000000000e+00 0.0000000000000000e+00 0.0000000000000000e+00  0.0000000000000000e+00 0.0000000000000000e+00 0.0000000000000000e+00  0.0000000000000000e+00 0.0000000000000000e+00 0.0000000000000000e+00  0.0000000000000000e+00 0.0000000000000000e+00 0.0000000000000000e+00  0.0000000000000000e+00 0.0000000000000000e+00 0.0000000000000000e+00  0.0000000000000000e+00 0.0000000000000000e+00 0.0000000000000000e+00  0.0000000000000000e+00 0.0000000000000000e+00 0.0000000000000000e+00  0.0000000000000000e+00 0.0000000000000000e+00 0.0000000000000000e+00  0.0000000000000000e+00 0.0000000000000000e+00 0.0000000000000000e+00  0.0000000000000000e+00 0.0000000000000000e+00 0.0000000000000000e+00  0.0000000000000000e+00 0.0000000000000000e+00 0.0000000000000000e+00  0.0000000000000000e+00 0.0000000000000000e+00 0.0000000000000000e+00  0.0000000000000000e+00 0.0000000000000000e+00 0.0000000000000000e+00  0.0000000000000000e+00 0.0000000000000000e+00 0.0000000000000000e+00  0.0000000000000000e+00 0.0000000000000000e+00 0.0000000000000000e+00  0.0000000000000000e+00 0.0000000000000000e+00 0.0000000000000000e+00  0.0000000000000000e+00 0.0000000000000000e+00 0.0000000000000000e+00  0.0000000000000000e+00 0.0000000000000000e+00 0.0000000000000000e+00  0.0000000000000000e+00 0.0000000000000000e+00 0.0000000000000000e+00  0.0000000000000000e+00 0.0000000000000000e+00 0.0000000000000000e+00  0.0000000000000000e+00 0.0000000000000000e+00 0.0000000000000000e+00  0.0000000000000000e+00 0.0000000000000000e+00 0.0000000000000000e+00  0.0000000000000000e+00 0.0000000000000000e+00 0.0000000000000000e+00  0.0000000000000000e+00 0.0000000000000000e+00 0.0000000000000000e+00  0.0000000000000000e+00 0.0000000000000000e+00 0.0000000000000000e+00  0.0000000000000000e+00 0.0000000000000000e+00 0.0000000000000000e+00  0.0000000000000000e+00 0.0000000000000000e+00 0.0000000000000000e+00  0.0000000000000000e+00 0.0000000000000000e+00 0.0000000000000000e+00  0.0000000000000000e+00 0.0000000000000000e+00 0.0000000000000000e+00  0.0000000000000000e+00 0.0000000000000000e+00 0.0000000000000000e+00  0.0000000000000000e+00 0.0000000000000000e+00 0.0000000000000000e+00  0.0000000000000000e+00 0.0000000000000000e+00 0.0000000000000000e+00  0.0000000000000000e+00 0.0000000000000000e+00 0.0000000000000000e+00  0.0000000000000000e+00 0.0000000000000000e+00 0.0000000000000000e+00  0.0000000000000000e+00 0.0000000000000000e+00 0.0000000000000000e+00  0.0000000000000000e+00 0.0000000000000000e+00 0.0000000000000000e+00  0.0000000000000000e+00 0.0000000000000000e+00 0.0000000000000000e+00  -1.4738725578586649e-04 1.5495426951861273e-04 0.0000000000000000e+00  -2.3877400206533488e-04 2.6566016904453550e-04 0.0000000000000000e+00  -3.1166903737402400e-04 3.5912274721213041e-04 0.0000000000000000e+00  -3.7421224770719933e-04 4.4207745437509888e-04 0.0000000000000000e+00  -4.2964654544857785e-04 5.1829473365845558e-04 0.0000000000000000e+00  -4.8015710709671061e-04 5.8993836379540312e-04 0.0000000000000000e+00  -5.2736713838627373e-04 6.5814640034533563e-04 0.0000000000000000e+00  -5.7086244945761327e-04 7.2380360762661663e-04 0.0000000000000000e+00  -6.1185797337521511e-04 7.8747102946447620e-04 0.0000000000000000e+00  -6.5125528752839129e-04 8.4928289591442514e-04 0.0000000000000000e+00  -6.8881572357616075e-04 9.0990439426828827e-04 0.0000000000000000e+00  -7.2507015206685821e-04 9.6902859277311795e-04 0.0000000000000000e+00  -7.5992874880998255e-04 1.0273578693679748e-03 0.0000000000000000e+00  -7.9395770379350316e-04 1.0844101027680994e-03 0.0000000000000000e+00  -8.2701336049935089e-04 1.1408206326264081e-03 0.0000000000000000e+00  -8.5952352431756414e-04 1.1962867304239624e-03 0.0000000000000000e+00  -8.9108636449852243e-04 1.2509321914753544e-03 0.0000000000000000e+00  -9.2207021663077927e-04 1.3047543275487804e-03 0.0000000000000000e+00  -9.5262644547576482e-04 1.3580347764508786e-03 0.0000000000000000e+00  -9.8250714742058342e-04 1.4104222384344071e-03 0.0000000000000000e+00  -1.0118856953017321e-03 1.4621574420248225e-03 0.0000000000000000e+00  -1.0408119837789179e-03 1.5132085631647551e-03 0.0000000000000000e+00  -1.0692604018908473e-03 1.5635334806411590e-03 0.0000000000000000e+00  -1.0972374559771304e-03 1.6131622922500924e-03 0.0000000000000000e+00  -1.1247405130666540e-03 1.6620160415306590e-03 0.0000000000000000e+00  -1.1517570719138562e-03 1.7101324662608770e-03 0.0000000000000000e+00  -1.1783173434827721e-03 1.7574207740214804e-03 0.0000000000000000e+00  -1.2045270421067436e-03 1.8041999574868203e-03 0.0000000000000000e+00  -1.2300080790151879e-03 1.8501391839410987e-03 0.0000000000000000e+00  -1.2549158397105057e-03 1.8953289822802627e-03 0.0000000000000000e+00  -1.2792693076893857e-03 1.9398318928501674e-03 0.0000000000000000e+00  -1.3030935897156498e-03 1.9835162298026720e-03 0.0000000000000000e+00  -1.3261620867824572e-03 2.0264690167762479e-03 0.0000000000000000e+00  -1.3486666414468890e-03 2.0685956960613708e-03 0.0000000000000000e+00  -1.3704411439222307e-03 2.1101725718115512e-03 0.0000000000000000e+00  -1.3913631536215025e-03 2.1509889060855902e-03 0.0000000000000000e+00  -1.4115309798311566e-03 2.1911206355736631e-03 0.0000000000000000e+00  -1.4309777394284136e-03 2.2303998846576736e-03 0.0000000000000000e+00  -1.4494052561656178e-03 2.2692005788591744e-03 0.0000000000000000e+00  -1.4671029213918841e-03 2.3073012606738249e-03 0.0000000000000000e+00  -1.4837894426238121e-03 2.3448957885632044e-03 0.0000000000000000e+00  -1.4995863880875918e-03 2.3817289024544159e-03 0.0000000000000000e+00  -1.5274118298952389e-03 2.4521071422412659e-03 0.0000000000000000e+00  -1.5395935606449117e-03 2.4855731498582218e-03 0.0000000000000000e+00  -1.5508070177236968e-03 2.5189183607380364e-03 0.0000000000000000e+00  -1.5611307957275400e-03 2.5517598897540979e-03 0.0000000000000000e+00  -1.5705505504666974e-03 2.5845876383119998e-03 0.0000000000000000e+00  -1.5788520953816912e-03 2.6172400218918849e-03 0.0000000000000000e+00  -1.5862889145668111e-03 2.6494281380928537e-03 0.0000000000000000e+00  -1.5926883906138161e-03 2.6815954706310664e-03 0.0000000000000000e+00  -1.5980941057027439e-03 2.7137188369969032e-03 0.0000000000000000e+00  -1.6023202497329736e-03 2.7458443528149334e-03 0.0000000000000000e+00  -1.6057176525539208e-03 2.7777195086602451e-03 0.0000000000000000e+00  -1.6093036922308886e-03 2.8417772951395671e-03 0.0000000000000000e+00  -1.6095560643202963e-03 2.8738710514334153e-03 0.0000000000000000e+00  -1.6088427645608000e-03 2.9062804328756271e-03 0.0000000000000000e+00  -1.6071217754875346e-03 2.9386495801349529e-03 0.0000000000000000e+00  -1.6044507114110949e-03 2.9714584184234792e-03 0.0000000000000000e+00  -1.6007785610946514e-03 3.0045789504979255e-03 0.0000000000000000e+00  -1.5961042831465070e-03 3.0377700112660219e-03 0.0000000000000000e+00  -1.5906253497322586e-03 3.0714602891864433e-03 0.0000000000000000e+00  -1.5843049012200265e-03 3.1055777233705336e-03 0.0000000000000000e+00  -1.5769121400956809e-03 3.1401085619165298e-03 0.0000000000000000e+00  -1.5688644518328247e-03 3.1748709076306063e-03 0.0000000000000000e+00  -1.5497172080256826e-03 3.2484122107787170e-03 0.0000000000000000e+00  -1.5386032360473637e-03 3.2871515627709113e-03 0.0000000000000000e+00  -1.5267485268427670e-03 3.3268008804928401e-03 0.0000000000000000e+00  -1.5140804132590018e-03 3.3671183381722117e-03 0.0000000000000000e+00  -1.5009311511124577e-03 3.4083241401691592e-03 0.0000000000000000e+00  -1.4869247257477405e-03 3.4502237891667225e-03 0.0000000000000000e+00  -1.4724537649254735e-03 3.4931254316793352e-03 0.0000000000000000e+00  -1.4574116473282674e-03 3.5369334607910519e-03 0.0000000000000000e+00  -1.4418975747407959e-03 3.5817037802794265e-03 0.0000000000000000e+00  -1.4258803230696837e-03 3.6272750090657617e-03 0.0000000000000000e+00  -1.4096846012474889e-03 3.6738553758883332e-03 0.0000000000000000e+00  -1.3930949496254227e-03 3.7213929396756784e-03 0.0000000000000000e+00  -1.3763557083068608e-03 3.7699059953755398e-03 0.0000000000000000e+00  -1.3594806645535330e-03 3.8194148996114610e-03 0.0000000000000000e+00  -1.3424758762423075e-03 3.8698964197550136e-03 0.0000000000000000e+00  -1.3253332668251312e-03 3.9213444900251804e-03 0.0000000000000000e+00  -1.3082404777293877e-03 3.9736508217878006e-03 0.0000000000000000e+00  -1.2913222457099816e-03 4.0269551230373004e-03 0.0000000000000000e+00  -1.2745638332100949e-03 4.0811706345142236e-03 0.0000000000000000e+00  -1.2579897541101141e-03 4.1363257728094412e-03 0.0000000000000000e+00  -1.2416860562941097e-03 4.1924292766173056e-03 0.0000000000000000e+00  -1.2255940595360076e-03 4.2494430554879037e-03 0.0000000000000000e+00  -1.2100345655935839e-03 4.3072638501558749e-03 0.0000000000000000e+00  -1.1947690687267893e-03 4.3659891639792284e-03 0.0000000000000000e+00  -1.1800761066004305e-03 4.4254438777471894e-03 0.0000000000000000e+00  -1.1658261214838300e-03 4.4857806528236900e-03 0.0000000000000000e+00  -1.1521394442324901e-03 4.5468609753343565e-03 0.0000000000000000e+00  -1.1390945543392999e-03 4.6085853587860019e-03 0.0000000000000000e+00  -1.1266998990237941e-03 4.6709886934266798e-03 0.0000000000000000e+00  -1.1149136219777906e-03 4.7342055557338635e-03 0.0000000000000000e+00  -1.1039581435090613e-03 4.7978352675680513e-03 0.0000000000000000e+00  -1.0936339864527913e-03 4.8622352070154962e-03 0.0000000000000000e+00  -1.0841523097306093e-03 4.9271541691598888e-03 0.0000000000000000e+00  -1.0754637847028921e-03 4.9927827760646425e-03 0.0000000000000000e+00  -1.0676085786877464e-03 5.0586786677874031e-03 0.0000000000000000e+00  -1.0605900513600715e-03 5.1250376104319669e-03 0.0000000000000000e+00  -1.0544943933165510e-03 5.1919547196669765e-03 0.0000000000000000e+00  -1.0492830589127449e-03 5.2591583914891821e-03 0.0000000000000000e+00  -1.0450054292900203e-03 5.3267703027245284e-03 0.0000000000000000e+00  -1.0415650728783149e-03 5.3947244788757533e-03 0.0000000000000000e+00  -1.0393801010531358e-03 5.4629614938852171e-03 0.0000000000000000e+00  -1.0377754244269451e-03 5.5313645697880852e-03 0.0000000000000000e+00  -1.0074679473972338e-03 5.5999999999999999e-03 0.0000000000000000e+00  -9.7796708944001133e-04 5.5999999999999999e-03 0.0000000000000000e+00  -9.4889218823530756e-04 5.5999999999999991e-03 0.0000000000000000e+00  -9.2011189072975161e-04 5.5999999999999999e-03 0.0000000000000000e+00  -8.9152008135121334e-04 5.5999999999999999e-03 0.0000000000000000e+00  -8.6342060165065849e-04 5.5999999999999999e-03 0.0000000000000000e+00  -8.3542457702709546e-04 5.5999999999999999e-03 0.0000000000000000e+00  -8.0760625252006681e-04 5.5999999999999999e-03 0.0000000000000000e+00  -7.7990859862475637e-04 5.5999999999999999e-03 0.0000000000000000e+00  -7.5261263283952888e-04 5.5999999999999999e-03 0.0000000000000000e+00  -7.2532426772139492e-04 5.5999999999999999e-03 0.0000000000000000e+00  -6.9819129111781456e-04 5.5999999999999999e-03 0.0000000000000000e+00  -6.7120177260655682e-04 5.5999999999999999e-03 0.0000000000000000e+00  -6.4438598722849007e-04 5.5999999999999999e-03 0.0000000000000000e+00  -6.1771420439825267e-04 5.5999999999999999e-03 0.0000000000000000e+00  -5.9108165829741129e-04 5.5999999999999999e-03 0.0000000000000000e+00  -5.6456620358071215e-04 5.5999999999999999e-03 0.0000000000000000e+00  -5.3821312614039810e-04 5.5999999999999991e-03 0.0000000000000000e+00  -5.1200822595997121e-04 5.5999999999999999e-03 0.0000000000000000e+00  -4.8592578442523972e-04 5.5999999999999999e-03 0.0000000000000000e+00  -4.5999876044387273e-04 5.5999999999999999e-03 0.0000000000000000e+00  -4.3422542702629193e-04 5.5999999999999999e-03 0.0000000000000000e+00  -4.0862411342528512e-04 5.5999999999999999e-03 0.0000000000000000e+00  -3.8323778011641399e-04 5.5999999999999999e-03 0.0000000000000000e+00  -3.5800827101548896e-04 5.5999999999999999e-03 0.0000000000000000e+00  -3.3302327642813304e-04 5.5999999999999999e-03 0.0000000000000000e+00  -3.0830960176953941e-04 5.5999999999999999e-03 0.0000000000000000e+00  -2.8381179495228799e-04 5.5999999999999999e-03 0.0000000000000000e+00  -2.5970664351975919e-04 5.5999999999999999e-03 0.0000000000000000e+00  -2.3590500635350755e-04 5.5999999999999999e-03 0.0000000000000000e+00  -2.1241809973045279e-04 5.5999999999999999e-03 0.0000000000000000e+00  -1.8934959599870016e-04 5.5999999999999999e-03 0.0000000000000000e+00  -1.6664692451684123e-04 5.5999999999999999e-03 0.0000000000000000e+00  -1.4426017612533028e-04 5.5999999999999991e-03 0.0000000000000000e+00  -1.2251509685089342e-04 5.5999999999999999e-03 0.0000000000000000e+00  -1.0114774569048299e-04 5.5999999999999999e-03 0.0000000000000000e+00  -8.0287586318504339e-05 5.5999999999999999e-03 0.0000000000000000e+00  -5.9957900973618881e-05 5.5999999999999999e-03 0.0000000000000000e+00  -4.0054890415567850e-05 5.5999999999999999e-03 0.0000000000000000e+00  -2.0823713398305044e-05 5.5999999999999999e-03 0.0000000000000000e+00  -2.2120897360851395e-06 5.5999999999999999e-03 0.0000000000000000e+00  1.5747701258076771e-05 5.5999999999999999e-03 0.0000000000000000e+00  3.3176432340565430e-05 5.5999999999999999e-03 0.0000000000000000e+00  5.0057255982312142e-05 5.5999999999999999e-03 0.0000000000000000e+00  6.6117244212620508e-05 5.5999999999999999e-03 0.0000000000000000e+00  8.1671335377932251e-05 5.5999999999999999e-03 0.0000000000000000e+00  9.6578323515149792e-05 5.5999999999999999e-03 0.0000000000000000e+00  1.1057387709519739e-04 5.5999999999999999e-03 0.0000000000000000e+00  1.2402018805847347e-04 5.5999999999999999e-03 0.0000000000000000e+00  1.3690773364456748e-04 5.5999999999999999e-03 0.0000000000000000e+00  1.4907685575946475e-04 5.5999999999999999e-03 0.0000000000000000e+00  1.6046603967000749e-04 5.5999999999999999e-03 0.0000000000000000e+00  1.7120547169257848e-04 5.5999999999999999e-03 0.0000000000000000e+00  1.8138738239559897e-04 5.5999999999999999e-03 0.0000000000000000e+00  1.9083057414851347e-04 5.5999999999999999e-03 0.0000000000000000e+00  1.9962150746168916e-04 5.5999999999999999e-03 0.0000000000000000e+00  2.0783994058549027e-04 5.5999999999999999e-03 0.0000000000000000e+00  2.1550954280656707e-04 5.5999999999999999e-03 0.0000000000000000e+00  2.2240198135367321e-04 5.5999999999999999e-03 0.0000000000000000e+00  2.2884692617634582e-04 5.5999999999999999e-03 0.0000000000000000e+00  2.3469206971982607e-04 5.5999999999999999e-03 0.0000000000000000e+00  2.3999645618941952e-04 5.5999999999999999e-03 0.0000000000000000e+00  2.4472200774652283e-04 5.5999999999999999e-03 0.0000000000000000e+00  2.4906052266620188e-04 5.5999999999999999e-03 0.0000000000000000e+00  2.5295454246146399e-04 5.5999999999999999e-03 0.0000000000000000