<?xml version="1.0"?>
<VTKFile type="UnstructuredGrid"  version="0.1"  >
<UnstructuredGrid>
<Piece  NumberOfPoints="15540" NumberOfCells="30546">
<Points>
<DataArray  type="Float64"  NumberOfComponents="3"  format="ascii">0 0 0  -0.5 -0.5 0  0.5 -0.5 0  0.5 0 0  0.5 0.5 0  -0.5 0.5 0  -0.5 0.0001 0  -0.5 -0.0001 0  0.5 0.1 0  0.5 -0.1 0  -0.5 -0.1 0  -0.5 0.1 0  -0.4900000000000277 -0.5 0  -0.4800000000000555 -0.5 0  -0.4700000000000832 -0.5 0  -0.4600000000001109 -0.5 0  -0.4500000000001387 -0.5 0  -0.4400000000001664 -0.5 0  -0.4300000000001942 -0.5 0  -0.4200000000002219 -0.5 0  -0.4100000000002497 -0.5 0  -0.4000000000002774 -0.5 0  -0.3900000000003052 -0.5 0  -0.3800000000003328 -0.5 0  -0.3700000000003606 -0.5 0  -0.3600000000003883 -0.5 0  -0.3500000000004161 -0.5 0  -0.3400000000004438 -0.5 0  -0.3300000000004716 -0.5 0  -0.3200000000004993 -0.5 0  -0.3100000000005271 -0.5 0  -0.3000000000005548 -0.5 0  -0.2900000000005825 -0.5 0  -0.2800000000006103 -0.5 0  -0.2700000000006381 -0.5 0  -0.2600000000006658 -0.5 0  -0.2500000000006935 -0.5 0  -0.2400000000007212 -0.5 0  -0.230000000000749 -0.5 0  -0.2200000000007767 -0.5 0  -0.2100000000008044 -0.5 0  -0.2000000000008322 -0.5 0  -0.19000000000086 -0.5 0  -0.1800000000008877 -0.5 0  -0.1700000000009154 -0.5 0  -0.1600000000009431 -0.5 0  -0.1500000000009709 -0.5 0  -0.1400000000009986 -0.5 0  -0.1300000000010264 -0.5 0  -0.1200000000010541 -0.5 0  -0.1100000000010818 -0.5 0  -0.1000000000011096 -0.5 0  -0.09000000000113734 -0.5 0  -0.08000000000116503 -0.5 0  -0.07000000000119283 -0.5 0  -0.06000000000122058 -0.5 0  -0.05000000000124827 -0.5 0  -0.04000000000127607 -0.5 0  -0.03000000000130376 -0.5 0  -0.02000000000133151 -0.5 0  -0.01000000000135925 -0.5 0  -1.376121439022882e-12 -0.5 0  0.009999999998640763 -0.5 0  0.01999999999866864 -0.5 0  0.02999999999869629 -0.5 0  0.03999999999872406 -0.5 0  0.04999999999875182 -0.5 0  0.05999999999877947 -0.5 0  0.06999999999880724 -0.5 0  0.079999999998835 -0.5 0  0.08999999999886266 -0.5 0  0.09999999999889042 -0.5 0  0.1099999999989182 -0.5 0  0.1199999999989459 -0.5 0  0.1299999999989737 -0.5 0  0.1399999999990014 -0.5 0  0.1499999999990291 -0.5 0  0.1599999999990568 -0.5 0  0.1699999999990847 -0.5 0  0.1799999999991124 -0.5 0  0.1899999999991401 -0.5 0  0.1999999999991678 -0.5 0  0.2099999999991955 -0.5 0  0.2199999999992234 -0.5 0  0.2299999999992511 -0.5 0  0.2399999999992788 -0.5 0  0.2499999999993066 -0.5 0  0.2599999999993342 -0.5 0  0.269999999999362 -0.5 0  0.2799999999993897 -0.5 0  0.2899999999994175 -0.5 0  0.2999999999994452 -0.5 0  0.3099999999994729 -0.5 0  0.3199999999995007 -0.5 0  0.3299999999995284 -0.5 0  0.3399999999995562 -0.5 0  0.3499999999995839 -0.5 0  0.3599999999996116 -0.5 0  0.3699999999996393 -0.5 0  0.379999999999667 -0.5 0  0.3899999999996949 -0.5 0  0.3999999999997226 -0.5 0  0.4099999999997503 -0.5 0  0.419999999999778 -0.5 0  0.4299999999998058 -0.5 0  0.4399999999998336 -0.5 0  0.4499999999998613 -0.5 0  0.4599999999998891 -0.5 0  0.4699999999999167 -0.5 0  0.4799999999999445 -0.5 0  0.4899999999999722 -0.5 0  0.5 -0.4902110204681464 0  0.5 -0.4804459958734807 0  0.5 -0.4707048677450883 0  0.5 -0.4609875815766065 0  0.5 -0.4512940759251849 0  0.5 -0.4416242912883993 0  0.5 -0.4319781678689807 0  0.5 -0.4223556545383647 0  0.5 -0.4127566896324213 0  0.5 -0.4031812128200121 0  0.5 -0.3936291733057916 0  0.5 -0.3841005081172659 0  0.5 -0.3745951585781932 0  0.5 -0.3651130778999337 0  0.5 -0.3556541993788045 0  0.5 -0.3462184677228392 0  0.5 -0.3368058273705318 0  0.5 -0.3274162224888609 0  0.5 -0.3180495969712945 0  0.5 -0.3087058944357755 0  0.5 -0.299385058222682 0  0.5 -0.2900870313927414 0  0.5 -0.2808117567250807 0  0.5 -0.2715591844628491 0  0.5 -0.2623292564012653 0  0.5 -0.253121909553727 0  0.5 -0.2439371050851549 0  0.5 -0.2347747685524501 0  0.5 -0.2256348634421331 0  0.5 -0.2165173209784076 0  0.5 -0.207422087829958 0  0.5 -0.1983491207029381 0  0.5 -0.1892983550950482 0  0.5 -0.1802697378305253 0  0.5 -0.1712632154965152 0  0.5 -0.1622787344187354 0  0.5 -0.1533162406595534 0  0.5 -0.1443756800160514 0  0.5 -0.1354569980180493 0  0.5 -0.1265601399261414 0  0.5 -0.1176850622761093 0  0.5 -0.1088317009011999 0  0.5 -0.09166666666668973 0  0.5 -0.08333333333337943 0  0.5 -0.07500000000006915 0  0.5 -0.06666666666675886 0  0.5 -0.05833333333344858 0  0.5 -0.05000000000013693 0  0.5 -0.04166666666678191 0  0.5 -0.03333333333342643 0  0.5 -0.02500000000006916 0  0.5 -0.01666666666671188 0  0.5 -0.00833333333335548 0  0.5 0.008333333333318314 0  0.5 0.01666666666663358 0  0.5 0.02499999999994162 0  0.5 0.03333333333325101 0  0.5 0.04166666666655769 0  0.5 0.04999999999986843 0  0.5 0.05833333333322258 0  0.5 0.06666666666657715 0  0.5 0.07499999999993352 0  0.5 0.08333333333328992 0  0.5 0.09166666666664541 0  0.5 0.1088317009011616 0  0.5 0.1176850622760307 0  0.5 0.1265601399260203 0  0.5 0.1354569980178909 0  0.5 0.1443756800158549 0  0.5 0.153316240659315 0  0.5 0.1622787344184454 0  0.5 0.1712632154961752 0  0.5 0.1802697378301332 0  0.5 0.1892983550946039 0  0.5 0.1983491207024433 0  0.5 0.2074220878294123 0  0.5 0.216517320977811 0  0.5 0.2256348634414833 0  0.5 0.2347747685517479 0  0.5 0.2439371050844009 0  0.5 0.2531219095529224 0  0.5 0.2623292564004089 0  0.5 0.2715591844619371 0  0.5 0.2808117567241139 0  0.5 0.290087031391723 0  0.5 0.2993850582216101 0  0.5 0.3087058944347426 0  0.5 0.3180495969703129 0  0.5 0.3274162224879299 0  0.5 0.3368058273696494 0  0.5 0.3462184677220051 0  0.5 0.3556541993780186 0  0.5 0.3651130778991989 0  0.5 0.3745951585775107 0  0.5 0.3841005081166359 0  0.5 0.3936291733052134 0  0.5 0.4031812128194852 0  0.5 0.412756689631945 0  0.5 0.4223556545379392 0  0.5 0.431978167868607 0  0.5 0.4416242912880781 0  0.5 0.4512940759249164 0  0.5 0.4609875815763912 0  0.5 0.4707048677449264 0  0.5 0.4804459958733726 0  0.5 0.4902110204680924 0  0.4900000000000277 0.5 0  0.4800000000000555 0.5 0  0.4700000000000832 0.5 0  0.4600000000001109 0.5 0  0.4500000000001387 0.5 0  0.4400000000001664 0.5 0  0.4300000000001942 0.5 0  0.4200000000002219 0.5 0  0.4100000000002497 0.5 0  0.4000000000002774 0.5 0  0.3900000000003052 0.5 0  0.3800000000003328 0.5 0  0.3700000000003606 0.5 0  0.3600000000003883 0.5 0  0.3500000000004161 0.5 0  0.3400000000004438 0.5 0  0.3300000000004716 0.5 0  0.3200000000004993 0.5 0  0.3100000000005271 0.5 0  0.3000000000005548 0.5 0  0.2900000000005825 0.5 0  0.2800000000006103 0.5 0  0.2700000000006381 0.5 0  0.2600000000006658 0.5 0  0.2500000000006935 0.5 0  0.2400000000007212 0.5 0  0.230000000000749 0.5 0  0.2200000000007767 0.5 0  0.2100000000008044 0.5 0  0.2000000000008322 0.5 0  0.19000000000086 0.5 0  0.1800000000008877 0.5 0  0.1700000000009154 0.5 0  0.1600000000009431 0.5 0  0.1500000000009709 0.5 0  0.1400000000009986 0.5 0  0.1300000000010264 0.5 0  0.1200000000010541 0.5 0  0.1100000000010818 0.5 0  0.1000000000011096 0.5 0  0.09000000000113734 0.5 0  0.08000000000116503 0.5 0  0.07000000000119283 0.5 0  0.06000000000122058 0.5 0  0.05000000000124827 0.5 0  0.04000000000127607 0.5 0  0.03000000000130376 0.5 0  0.02000000000133151 0.5 0  0.01000000000135925 0.5 0  1.376121439022882e-12 0.5 0  -0.009999999998640763 0.5 0  -0.01999999999866864 0.5 0  -0.02999999999869629 0.5 0  -0.03999999999872406 0.5 0  -0.04999999999875182 0.5 0  -0.05999999999877947 0.5 0  -0.06999999999880724 0.5 0  -0.079999999998835 0.5 0  -0.08999999999886266 0.5 0  -0.09999999999889042 0.5 0  -0.1099999999989182 0.5 0  -0.1199999999989459 0.5 0  -0.1299999999989737 0.5 0  -0.1399999999990014 0.5 0  -0.1499999999990291 0.5 0  -0.1599999999990568 0.5 0  -0.1699999999990847 0.5 0  -0.1799999999991124 0.5 0  -0.1899999999991401 0.5 0  -0.1999999999991678 0.5 0  -0.2099999999991955 0.5 0  -0.2199999999992234 0.5 0  -0.2299999999992511 0.5 0  -0.2399999999992788 0.5 0  -0.2499999999993066 0.5 0  -0.2599999999993342 0.5 0  -0.269999999999362 0.5 0  -0.2799999999993897 0.5 0  -0.2899999999994175 0.5 0  -0.2999999999994452 0.5 0  -0.3099999999994729 0.5 0  -0.3199999999995007 0.5 0  -0.3299999999995284 0.5 0  -0.3399999999995562 0.5 0  -0.3499999999995839 0.5 0  -0.3599999999996116 0.5 0  -0.3699999999996393 0.5 0  -0.379999999999667 0.5 0  -0.3899999999996949 0.5 0  -0.3999999999997226 0.5 0  -0.4099999999997503 0.5 0  -0.419999999999778 0.5 0  -0.4299999999998058 0.5 0  -0.4399999999998336 0.5 0  -0.4499999999998613 0.5 0  -0.4599999999998891 0.5 0  -0.4699999999999167 0.5 0  -0.4799999999999445 0.5 0  -0.4899999999999722 0.5 0  -0.5 0.4902110204681464 0  -0.5 0.4804459958734807 0  -0.5 0.4707048677450883 0  -0.5 0.4609875815766065 0  -0.5 0.4512940759251849 0  -0.5 0.4416242912883993 0  -0.5 0.4319781678689807 0  -0.5 0.4223556545383647 0  -0.5 0.4127566896324213 0  -0.5 0.4031812128200121 0  -0.5 0.3936291733057916 0  -0.5 0.3841005081172659 0  -0.5 0.3745951585781932 0  -0.5 0.3651130778999337 0  -0.5 0.3556541993788045 0  -0.5 0.3462184677228392 0  -0.5 0.3368058273705318 0  -0.5 0.3274162224888609 0  -0.5 0.3180495969712945 0  -0.5 0.3087058944357755 0  -0.5 0.299385058222682 0  -0.5 0.2900870313927414 0  -0.5 0.2808117567250807 0  -0.5 0.2715591844628491 0  -0.5 0.2623292564012653 0  -0.5 0.253121909553727 0  -0.5 0.2439371050851549 0  -0.5 0.2347747685524501 0  -0.5 0.2256348634421331 0  -0.5 0.2165173209784076 0  -0.5 0.207422087829958 0  -0.5 0.1983491207029381 0  -0.5 0.1892983550950482 0  -0.5 0.1802697378305253 0  -0.5 0.1712632154965152 0  -0.5 0.1622787344187354 0  -0.5 0.1533162406595534 0  -0.5 0.1443756800160514 0  -0.5 0.1354569980180493 0  -0.5 0.1265601399261414 0  -0.5 0.1176850622761093 0  -0.5 0.1088317009011999 0  -0.5 0.09167500000001694 0  -0.5 0.08335000000003931 0  -0.5 0.07502500000006167 0  -0.5 0.06670000000008947 0  -0.5 0.05837500000011001 0  -0.5 0.0500500000001328 0  -0.5 0.0417250000001127 0  -0.5 0.03340000000008944 0  -0.5 0.02507500000006573 0  -0.5 0.01675000000004653 0  -0.5 0.008425000000027341 
[...]
<PointData  Vectors="f_20"> 
<DataArray  type="Float64"  Name="f_20"  NumberOfComponents="3" format="ascii">-1.9899505258432837e-04 6.7499894064655100e-04 0.0000000000000000e+00  0.0000000000000000e+00 0.0000000000000000e+00 0.0000000000000000e+00  0.0000000000000000e+00 0.0000000000000000e+00 0.0000000000000000e+00  -3.7951146846320965e-04 7.0270668417288923e-04 0.0000000000000000e+00  -2.7858412762588893e-04 1.4000000000000002e-03 0.0000000000000000e+00  9.7761361116113982e-05 1.4000000000000002e-03 0.0000000000000000e+00  -9.3598068973112805e-05 1.4692446813829589e-03 0.0000000000000000e+00  -7.2577032509806594e-05 -4.0041986752787795e-05 0.0000000000000000e+00  -3.7215138366644994e-04 8.1528420996925021e-04 0.0000000000000000e+00  -3.5921558906500090e-04 5.9260861039146958e-04 0.0000000000000000e+00  -4.1987357691617085e-05 -3.9689462629425429e-05 0.0000000000000000e+00  -4.3584653063437219e-05 1.4690146626088415e-03 0.0000000000000000e+00  0.0000000000000000e+00 0.0000000000000000e+00 0.0000000000000000e+00  0.0000000000000000e+00 0.0000000000000000e+00 0.0000000000000000e+00  0.0000000000000000e+00 0.0000000000000000e+00 0.0000000000000000e+00  0.0000000000000000e+00 0.0000000000000000e+00 0.0000000000000000e+00  0.0000000000000000e+00 0.0000000000000000e+00 0.0000000000000000e+00  0.0000000000000000e+00 0.0000000000000000e+00 0.0000000000000000e+00  0.0000000000000000e+00 0.0000000000000000e+00 0.0000000000000000e+00  0.0000000000000000e+00 0.0000000000000000e+00 0.0000000000000000e+00  0.0000000000000000e+00 0.0000000000000000e+00 0.0000000000000000e+00  0.0000000000000000e+00 0.0000000000000000e+00 0.0000000000000000e+00  0.0000000000000000e+00 0.0000000000000000e+00 0.0000000000000000e+00  0.0000000000000000e+00 0.0000000000000000e+00 0.0000000000000000e+00  0.0000000000000000e+00 0.0000000000000000e+00 0.0000000000000000e+00  0.0000000000000000e+00 0.0000000000000000e+00 0.0000000000000000e+00  0.0000000000000000e+00 0.0000000000000000e+00 0.0000000000000000e+00  0.0000000000000000e+00 0.0000000000000000e+00 0.0000000000000000e+00  0.0000000000000000e+00 0.0000000000000000e+00 0.0000000000000000e+00  0.0000000000000000e+00 0.0000000000000000e+00 0.0000000000000000e+00  0.0000000000000000e+00 0.0000000000000000e+00 0.0000000000000000e+00  0.0000000000000000e+00 0.0000000000000000e+00 0.0000000000000000e+00  0.0000000000000000e+00 0.0000000000000000e+00 0.0000000000000000e+00  0.0000000000000000e+00 0.0000000000000000e+00 0.0000000000000000e+00  0.0000000000000000e+00 0.0000000000000000e+00 0.0000000000000000e+00  0.0000000000000000e+00 0.0000000000000000e+00 0.0000000000000000e+00  0.0000000000000000e+00 0.0000000000000000e+00 0.0000000000000000e+00  0.0000000000000000e+00 0.0000000000000000e+00 0.0000000000000000e+00  0.0000000000000000e+00 0.0000000000000000e+00 0.0000000000000000e+00  0.0000000000000000e+00 0.0000000000000000e+00 0.0000000000000000e+00  0.0000000000000000e+00 0.0000000000000000e+00 0.0000000000000000e+00  0.0000000000000000e+00 0.0000000000000000e+00 0.0000000000000000e+00  0.0000000000000000e+00 0.0000000000000000e+00 0.0000000000000000e+00  0.0000000000000000e+00 0.0000000000000000e+00 0.0000000000000000e+00  0.0000000000000000e+00 0.0000000000000000e+00 0.0000000000000000e+00  0.0000000000000000e+00 0.0000000000000000e+00 0.0000000000000000e+00  0.0000000000000000e+00 0.0000000000000000e+00 0.0000000000000000e+00  0.0000000000000000e+00 0.0000000000000000e+00 0.0000000000000000e+00  0.0000000000000000e+00 0.0000000000000000e+00 0.0000000000000000e+00  0.0000000000000000e+00 0.0000000000000000e+00 0.0000000000000000e+00  0.0000000000000000e+00 0.0000000000000000e+00 0.0000000000000000e+00  0.0000000000000000e+00 0.0000000000000000e+00 0.0000000000000000e+00  0.0000000000000000e+00 0.0000000000000000e+00 0.0000000000000000e+00  0.0000000000000000e+00 0.0000000000000000e+00 0.0000000000000000e+00  0.0000000000000000e+00 0.0000000000000000e+00 0.0000000000000000e+00  0.0000000000000000e+00 0.0000000000000000e+00 0.0000000000000000e+00  0.0000000000000000e+00 0.0000000000000000e+00 0.0000000000000000e+00  0.0000000000000000e+00 0.0000000000000000e+00 0.0000000000000000e+00  0.0000000000000000e+00 0.0000000000000000e+00 0.0000000000000000e+00  0.0000000000000000e+00 0.0000000000000000e+00 0.0000000000000000e+00  0.0000000000000000e+00 0.0000000000000000e+00 0.0000000000000000e+00  0.0000000000000000e+00 0.0000000000000000e+00 0.0000000000000000e+00  0.0000000000000000e+00 0.0000000000000000e+00 0.0000000000000000e+00  0.0000000000000000e+00 0.0000000000000000e+00 0.0000000000000000e+00  0.0000000000000000e+00 0.0000000000000000e+00 0.0000000000000000e+00  0.0000000000000000e+00 0.0000000000000000e+00 0.0000000000000000e+00  0.0000000000000000e+00 0.0000000000000000e+00 0.0000000000000000e+00  0.0000000000000000e+00 0.0000000000000000e+00 0.0000000000000000e+00  0.0000000000000000e+00 0.0000000000000000e+00 0.0000000000000000e+00  0.0000000000000000e+00 0.0000000000000000e+00 0.0000000000000000e+00  0.0000000000000000e+00 0.0000000000000000e+00 0.0000000000000000e+00  0.0000000000000000e+00 0.0000000000000000e+00 0.0000000000000000e+00  0.0000000000000000e+00 0.0000000000000000e+00 0.0000000000000000e+00  0.0000000000000000e+00 0.0000000000000000e+00 0.0000000000000000e+00  0.0000000000000000e+00 0.0000000000000000e+00 0.0000000000000000e+00  0.0000000000000000e+00 0.0000000000000000e+00 0.0000000000000000e+00  0.0000000000000000e+00 0.0000000000000000e+00 0.0000000000000000e+00  0.0000000000000000e+00 0.0000000000000000e+00 0.0000000000000000e+00  0.0000000000000000e+00 0.0000000000000000e+00 0.0000000000000000e+00  0.0000000000000000e+00 0.0000000000000000e+00 0.0000000000000000e+00  0.0000000000000000e+00 0.0000000000000000e+00 0.0000000000000000e+00  0.0000000000000000e+00 0.0000000000000000e+00 0.0000000000000000e+00  0.0000000000000000e+00 0.0000000000000000e+00 0.0000000000000000e+00  0.0000000000000000e+00 0.0000000000000000e+00 0.0000000000000000e+00  0.0000000000000000e+00 0.0000000000000000e+00 0.0000000000000000e+00  0.0000000000000000e+00 0.0000000000000000e+00 0.0000000000000000e+00  0.0000000000000000e+00 0.0000000000000000e+00 0.0000000000000000e+00  0.0000000000000000e+00 0.0000000000000000e+00 0.0000000000000000e+00  0.0000000000000000e+00 0.0000000000000000e+00 0.0000000000000000e+00  0.0000000000000000e+00 0.0000000000000000e+00 0.0000000000000000e+00  0.0000000000000000e+00 0.0000000000000000e+00 0.0000000000000000e+00  0.0000000000000000e+00 0.0000000000000000e+00 0.0000000000000000e+00  0.0000000000000000e+00 0.0000000000000000e+00 0.0000000000000000e+00  0.0000000000000000e+00 0.0000000000000000e+00 0.0000000000000000e+00  0.0000000000000000e+00 0.0000000000000000e+00 0.0000000000000000e+00  0.0000000000000000e+00 0.0000000000000000e+00 0.0000000000000000e+00  0.0000000000000000e+00 0.0000000000000000e+00 0.0000000000000000e+00  0.0000000000000000e+00 0.0000000000000000e+00 0.0000000000000000e+00  0.0000000000000000e+00 0.0000000000000000e+00 0.0000000000000000e+00  0.0000000000000000e+00 0.0000000000000000e+00 0.0000000000000000e+00  0.0000000000000000e+00 0.0000000000000000e+00 0.0000000000000000e+00  0.0000000000000000e+00 0.0000000000000000e+00 0.0000000000000000e+00  0.0000000000000000e+00 0.0000000000000000e+00 0.0000000000000000e+00  0.0000000000000000e+00 0.0000000000000000e+00 0.0000000000000000e+00  0.0000000000000000e+00 0.0000000000000000e+00 0.0000000000000000e+00  0.0000000000000000e+00 0.0000000000000000e+00 0.0000000000000000e+00  0.0000000000000000e+00 0.0000000000000000e+00 0.0000000000000000e+00  0.0000000000000000e+00 0.0000000000000000e+00 0.0000000000000000e+00  0.0000000000000000e+00 0.0000000000000000e+00 0.0000000000000000e+00  0.0000000000000000e+00 0.0000000000000000e+00 0.0000000000000000e+00  0.0000000000000000e+00 0.0000000000000000e+00 0.0000000000000000e+00  -3.3517870356869629e-05 3.4804380230733063e-05 0.0000000000000000e+00  -5.5478999975234168e-05 6.0001731069301773e-05 0.0000000000000000e+00  -7.3566289504742668e-05 8.1388514766157706e-05 0.0000000000000000e+00  -8.9571158009858737e-05 1.0068653864785544e-04 0.0000000000000000e+00  -1.0396526493421424e-04 1.1851583291398442e-04 0.0000000000000000e+00  -1.1718433224811630e-04 1.3537405229689968e-04 0.0000000000000000e+00  -1.2958602359808478e-04 1.5149710661512862e-04 0.0000000000000000e+00  -1.4099309892639638e-04 1.6711868025220061e-04 0.0000000000000000e+00  -1.5170624028696512e-04 1.8232597392945900e-04 0.0000000000000000e+00  -1.6195434360828580e-04 1.9712035593206240e-04 0.0000000000000000e+00  -1.7162938183776485e-04 2.1167516962624763e-04 0.0000000000000000e+00  -1.8089870964284148e-04 2.2589617576693625e-04 0.0000000000000000e+00  -1.8970136035059023e-04 2.3998171820167386e-04 0.0000000000000000e+00  -1.9822461280054421e-04 2.5376632472805287e-04 0.0000000000000000e+00  -2.0640602124418294e-04 2.6744022569740253e-04 0.0000000000000000e+00  -2.1437545060154096e-04 2.8089929641539514e-04 0.0000000000000000e+00  -2.2201106556085396e-04 2.9420180209771904e-04 0.0000000000000000e+00  -2.2942966569170935e-04 3.0731463927422394e-04 0.0000000000000000e+00  -2.3667314909767612e-04 3.2033781921011881e-04 0.0000000000000000e+00  -2.4367257885311703e-04 3.3316934516290533e-04 0.0000000000000000e+00  -2.5048614628343883e-04 3.4587474930365794e-04 0.0000000000000000e+00  -2.5711988584131490e-04 3.5845711580894779e-04 0.0000000000000000e+00  -2.6359051039449155e-04 3.7089533717458154e-04 0.0000000000000000e+00  -2.6989384098142165e-04 3.8320729487065723e-04 0.0000000000000000e+00  -2.7603902285588635e-04 3.9537030014563814e-04 0.0000000000000000e+00  -2.8202635472851506e-04 4.0739635274940984e-04 0.0000000000000000e+00  -2.8786567008447483e-04 4.1926393825147880e-04 0.0000000000000000e+00  -2.9359006299018895e-04 4.3105574026872399e-04 0.0000000000000000e+00  -2.9911402174795604e-04 4.4269509385435192e-04 0.0000000000000000e+00  -3.0448411298092452e-04 4.5419965365760598e-04 0.0000000000000000e+00  -3.0970605003057043e-04 4.6559112937350866e-04 0.0000000000000000e+00  -3.1478934396909707e-04 4.7683283515605120e-04 0.0000000000000000e+00  -3.1969183169084362e-04 4.8795020754534090e-04 0.0000000000000000e+00  -3.2445188353540859e-04 4.9891988679236850e-04 0.0000000000000000e+00  -3.2904679310096971e-04 5.0980083464850778e-04 0.0000000000000000e+00  -3.3344470438933577e-04 5.2055243766059892e-04 0.0000000000000000e+00  -3.3767850425632409e-04 5.3118658878373369e-04 0.0000000000000000e+00  -3.4175132499337916e-04 5.4166636800006022e-04 0.0000000000000000e+00  -3.4561147137554098e-04 5.5207023931064692e-04 0.0000000000000000e+00  -3.4931191818647969e-04 5.6235133076912118e-04 0.0000000000000000e+00  -3.5280061659795825e-04 5.7255018484556280e-04 0.0000000000000000e+00  -3.5610589638830631e-04 5.8260974438899618e-04 0.0000000000000000e+00  -3.6193972833877301e-04 6.0196884958177150e-04 0.0000000000000000e+00  -3.6450172357349912e-04 6.1125336754595187e-04 0.0000000000000000e+00  -3.6686995981144931e-04 6.2052967781048079e-04 0.0000000000000000e+00  -3.6905905283098566e-04 6.2972130545843456e-04 0.0000000000000000e+00  -3.7106725225444600e-04 6.3892258417378356e-04 0.0000000000000000e+00  -3.7285524858263652e-04 6.4810219340479805e-04 0.0000000000000000e+00  -3.7446833471825000e-04 6.5720159889077752e-04 0.0000000000000000e+00  -3.7587824794009799e-04 6.6630789250204188e-04 0.0000000000000000e+00  -3.7709270127742815e-04 6.7541471762330837e-04 0.0000000000000000e+00  -3.7807321314807036e-04 6.8452961053776077e-04 0.0000000000000000e+00  -3.7889285303571171e-04 6.9360223370336924e-04 0.0000000000000000e+00  -3.7990365466387705e-04 7.1182696903878643e-04 0.0000000000000000e+00  -3.8010909033311388e-04 7.2095911091894132e-04 0.0000000000000000e+00  -3.8012731042742022e-04 7.3015559050730551e-04 0.0000000000000000e+00  -3.7994922753814607e-04 7.3934708278906012e-04 0.0000000000000000e+00  -3.7958861068389114e-04 7.4862496693105631e-04 0.0000000000000000e+00  -3.7903708734247758e-04 7.5796289283689550e-04 0.0000000000000000e+00  -3.7829108053233801e-04 7.6731405891308649e-04 0.0000000000000000e+00  -3.7739283815042352e-04 7.7676077922644935e-04 0.0000000000000000e+00  -3.7633490887925986e-04 7.8628802522115980e-04 0.0000000000000000e+00  -3.7507338221794601e-04 7.9588730401933304e-04 0.0000000000000000e+00  -3.7368705669801785e-04 8.0552861620615372e-04 0.0000000000000000e+00  -3.7035086330539313e-04 8.2573944523839295e-04 0.0000000000000000e+00  -3.6839681484283410e-04 8.3630747365460512e-04 0.0000000000000000e+00  -3.6630745288398413e-04 8.4704921251861588e-04 0.0000000000000000e+00  -3.6406653750961290e-04 8.5790834748267219e-04 0.0000000000000000e+00  -3.6173943568067798e-04 8.6893391021578828e-04 0.0000000000000000e+00  -3.5925120065790370e-04 8.8008687882906516e-04 0.0000000000000000e+00  -3.5668010727121064e-04 8.9142434495589884e-04 0.0000000000000000e+00  -3.5400354789844231e-04 9.0292844637352462e-04 0.0000000000000000e+00  -3.5124285489572234e-04 9.1460038767680548e-04 0.0000000000000000e+00  -3.4838670221628979e-04 9.2641831909396840e-04 0.0000000000000000e+00  -3.4550092105206800e-04 9.3841664985427507e-04 0.0000000000000000e+00  -3.4254226956233474e-04 9.5058302605578976e-04 0.0000000000000000e+00  -3.3955735894047726e-04 9.6292318784333873e-04 0.0000000000000000e+00  -3.3654660983505242e-04 9.7543970291037827e-04 0.0000000000000000e+00  -3.3351159222701573e-04 9.8813114090971614e-04 0.0000000000000000e+00  -3.3045216203281480e-04 1.0009832786391478e-03 0.0000000000000000e+00  -3.2739465319219272e-04 1.0139883623958333e-03 0.0000000000000000e+00  -3.2436972554333263e-04 1.0271710040862657e-03 0.0000000000000000e+00  -3.2137275841849608e-04 1.0405125295591729e-03 0.0000000000000000e+00  -3.1840730870268748e-04 1.0540195107658344e-03 0.0000000000000000e+00  -3.1548663326151806e-04 1.0676947669742004e-03 0.0000000000000000e+00  -3.1260290810041988e-04 1.0815347534334019e-03 0.0000000000000000e+00  -3.0981415698933630e-04 1.0955082492877235e-03 0.0000000000000000e+00  -3.0707108496466769e-04 1.1096485801276982e-03 0.0000000000000000e+00  -3.0443289016504014e-04 1.1239127845132906e-03 0.0000000000000000e+00  -3.0186858153184596e-04 1.1383371189560725e-03 0.0000000000000000e+00  -2.9940524047805060e-04 1.1529006454870448e-03 0.0000000000000000e+00  -2.9705277312459523e-04 1.1675713233264104e-03 0.0000000000000000e+00  -2.9481795649724052e-04 1.1823697224277842e-03 0.0000000000000000e+00  -2.9268754209412309e-04 1.1973169315561247e-03 0.0000000000000000e+00  -2.9071173906373640e-04 1.2123407891769982e-03 0.0000000000000000e+00  -2.8884155381780067e-04 1.2275049251213839e-03 0.0000000000000000e+00  -2.8712550828581589e-04 1.2427676828293945e-03 0.0000000000000000e+00  -2.8554902265714343e-04 1.2581639412190771e-03 0.0000000000000000e+00  -2.8412544974328529e-04 1.2736135836035080e-03 0.0000000000000000e+00  -2.8285084555040402e-04 1.2891522914773754e-03 0.0000000000000000e+00  -2.8174287000003081e-04 1.3047961498560726e-03 0.0000000000000000e+00  -2.8079671922975164e-04 1.3204994782513358e-03 0.0000000000000000e+00  -2.8001893622989958e-04 1.3362839263022801e-03 0.0000000000000000e+00  -2.7939255205220999e-04 1.3521379326840290e-03 0.0000000000000000e+00  -2.7899369583331160e-04 1.3680484876463300e-03 0.0000000000000000e+00  -2.7870174241393714e-04 1.3839990601464329e-03 0.0000000000000000e+00  -2.7164840913053721e-04 1.4000000000000002e-03 0.0000000000000000e+00  -2.6473708127546696e-04 1.4000000000000002e-03 0.0000000000000000e+00  -2.5789330927597373e-04 1.4000000000000002e-03 0.0000000000000000e+00  -2.5108923715971832e-04 1.4000000000000002e-03 0.0000000000000000e+00  -2.4430400182634315e-04 1.4000000000000002e-03 0.0000000000000000e+00  -2.3758106605984347e-04 1.4000000000000002e-03 0.0000000000000000e+00  -2.3085523348677540e-04 1.4000000000000002e-03 0.0000000000000000e+00  -2.2413453868935532e-04 1.4000000000000002e-03 0.0000000000000000e+00  -2.1740563476913601e-04 1.4000000000000002e-03 0.0000000000000000e+00  -2.1070797806243494e-04 1.4000000000000002e-03 0.0000000000000000e+00  -2.0398407065217228e-04 1.4000000000000002e-03 0.0000000000000000e+00  -1.9724845489644117e-04 1.4000000000000002e-03 0.0000000000000000e+00  -1.9049808021936413e-04 1.4000000000000002e-03 0.0000000000000000e+00  -1.8373300218708485e-04 1.4000000000000002e-03 0.0000000000000000e+00  -1.7695052075998807e-04 1.4000000000000002e-03 0.0000000000000000e+00  -1.7013784608593311e-04 1.4000000000000002e-03 0.0000000000000000e+00  -1.6330359202380149e-04 1.4000000000000002e-03 0.0000000000000000e+00  -1.5644824712632510e-04 1.4000000000000002e-03 0.0000000000000000e+00  -1.4957147464005513e-04 1.4000000000000002e-03 0.0000000000000000e+00  -1.4267473277586125e-04 1.4000000000000002e-03 0.0000000000000000e+00  -1.3575898202308344e-04 1.4000000000000002e-03 0.0000000000000000e+00  -1.2882533011322338e-04 1.4000000000000002e-03 0.0000000000000000e+00  -1.2187825590431201e-04 1.4000000000000002e-03 0.0000000000000000e+00  -1.1492514862763350e-04 1.4000000000000002e-03 0.0000000000000000e+00  -1.0795873154828573e-04 1.4000000000000002e-03 0.0000000000000000e+00  -1.0099329257451908e-04 1.4000000000000002e-03 0.0000000000000000e+00  -9.4036760900026694e-05 1.4000000000000002e-03 0.0000000000000000e+00  -8.7083368678916422e-05 1.4000000000000002e-03 0.0000000000000000e+00  -8.0162451409540779e-05 1.4000000000000002e-03 0.0000000000000000e+00  -7.3263614340806233e-05 1.4000000000000002e-03 0.0000000000000000e+00  -6.6390716542834920e-05 1.4000000000000002e-03 0.0000000000000000e+00  -5.9565266325864868e-05 1.4000000000000002e-03 0.0000000000000000e+00  -5.2783814826745952e-05 1.4000000000000002e-03 0.0000000000000000e+00  -4.6039138379011677e-05 1.4000000000000002e-03 0.0000000000000000e+00  -3.9397323794597867e-05 1.4000000000000002e-03 0.0000000000000000e+00  -3.2810979680173451e-05 1.4000000000000002e-03 0.0000000000000000e+00  -2.6309111115393404e-05 1.4000000000000002e-03 0.0000000000000000e+00  -1.9901975202690128e-05 1.4000000000000002e-03 0.0000000000000000e+00  -1.3571213060923655e-05 1.4000000000000002e-03 0.0000000000000000e+00  -7.3743764334734732e-06 1.4000000000000002e-03 0.0000000000000000e+00  -1.3039577532465295e-06 1.4000000000000002e-03 0.0000000000000000e+00  4.6268947976403308e-06 1.4000000000000002e-03 0.0000000000000000e+00  1.0440428742479311e-05 1.4000000000000002e-03 0.0000000000000000e+00  1.6130497990844951e-05 1.4000000000000002e-03 0.0000000000000000e+00  2.1626602439510769e-05 1.4000000000000002e-03 0.0000000000000000e+00  2.7000772483442006e-05 1.4000000000000002e-03 0.0000000000000000e+00  3.2214116258801245e-05 1.4000000000000002e-03 0.0000000000000000e+00  3.7195441576408535e-05 1.4000000000000002e-03 0.0000000000000000e+00  4.2031793710975760e-05 1.4000000000000002e-03 0.0000000000000000e+00  4.6718303160409593e-05 1.4000000000000002e-03 0.0000000000000000e+00  5.1208791168984441e-05 1.4000000000000002e-03 0.0000000000000000e+00  5.5481654439786183e-05 1.4000000000000002e-03 0.0000000000000000e+00  5.9568749211347431e-05 1.4000000000000002e-03 0.0000000000000000e+00  6.3491123838344926e-05 1.4000000000000002e-03 0.0000000000000000e+00  6.7198346252296925e-05 1.4000000000000002e-03 0.0000000000000000e+00  7.0707476594947182e-05 1.4000000000000002e-03 0.0000000000000000e+00  7.4040203384015957e-05 1.4000000000000002e-03 0.0000000000000000e+00  7.7201404030552201e-05 1.4000000000000002e-03 0.0000000000000000e+00  8.0119119937623835e-05 1.4000000000000002e-03 0.0000000000000000e+00  8.2890504223206727e-05 1.4000000000000002e-03 0.0000000000000000e+00  8.5466885990004369e-05 1.4000000000000002e-03 0.0000000000000000e+00  8.7864021783006806e-05 1.4000000000000002e-03 0.0000000000000000e+00  9.0066565923391660e-05 1.4000000000000002e-03 0.0000000000000000e+00  9.2134619760193384e-05 1.4000000000000002e-03 0.0000000000000000e+00  9.4047963509300600e-05 1.4000000000000002e-03 0.0000000000000000