<?xml version="1.0"?>
<VTKFile type="UnstructuredGrid"  version="0.1"  >
<UnstructuredGrid>
<Piece  NumberOfPoints="15540" NumberOfCells="30546">
<Points>
<DataArray  type="Float64"  NumberOfComponents="3"  format="ascii">0 0 0  -0.5 -0.5 0  0.5 -0.5 0  0.5 0 0  0.5 0.5 0  -0.5 0.5 0  -0.5 0.0001 0  -0.5 -0.0001 0  0.5 0.1 0  0.5 -0.1 0  -0.5 -0.1 0  -0.5 0.1 0  -0.4900000000000277 -0.5 0  -0.4800000000000555 -0.5 0  -0.4700000000000832 -0.5 0  -0.4600000000001109 -0.5 0  -0.4500000000001387 -0.5 0  -0.4400000000001664 -0.5 0  -0.4300000000001942 -0.5 0  -0.4200000000002219 -0.5 0  -0.4100000000002497 -0.5 0  -0.4000000000002774 -0.5 0  -0.3900000000003052 -0.5 0  -0.3800000000003328 -0.5 0  -0.3700000000003606 -0.5 0  -0.3600000000003883 -0.5 0  -0.3500000000004161 -0.5 0  -0.3400000000004438 -0.5 0  -0.3300000000004716 -0.5 0  -0.3200000000004993 -0.5 0  -0.3100000000005271 -0.5 0  -0.3000000000005548 -0.5 0  -0.2900000000005825 -0.5 0  -0.2800000000006103 -0.5 0  -0.2700000000006381 -0.5 0  -0.2600000000006658 -0.5 0  -0.2500000000006935 -0.5 0  -0.2400000000007212 -0.5 0  -0.230000000000749 -0.5 0  -0.2200000000007767 -0.5 0  -0.2100000000008044 -0.5 0  -0.2000000000008322 -0.5 0  -0.19000000000086 -0.5 0  -0.1800000000008877 -0.5 0  -0.1700000000009154 -0.5 0  -0.1600000000009431 -0.5 0  -0.1500000000009709 -0.5 0  -0.1400000000009986 -0.5 0  -0.1300000000010264 -0.5 0  -0.1200000000010541 -0.5 0  -0.1100000000010818 -0.5 0  -0.1000000000011096 -0.5 0  -0.09000000000113734 -0.5 0  -0.08000000000116503 -0.5 0  -0.07000000000119283 -0.5 0  -0.06000000000122058 -0.5 0  -0.05000000000124827 -0.5 0  -0.04000000000127607 -0.5 0  -0.03000000000130376 -0.5 0  -0.02000000000133151 -0.5 0  -0.01000000000135925 -0.5 0  -1.376121439022882e-12 -0.5 0  0.009999999998640763 -0.5 0  0.01999999999866864 -0.5 0  0.02999999999869629 -0.5 0  0.03999999999872406 -0.5 0  0.04999999999875182 -0.5 0  0.05999999999877947 -0.5 0  0.06999999999880724 -0.5 0  0.079999999998835 -0.5 0  0.08999999999886266 -0.5 0  0.09999999999889042 -0.5 0  0.1099999999989182 -0.5 0  0.1199999999989459 -0.5 0  0.1299999999989737 -0.5 0  0.1399999999990014 -0.5 0  0.1499999999990291 -0.5 0  0.1599999999990568 -0.5 0  0.1699999999990847 -0.5 0  0.1799999999991124 -0.5 0  0.1899999999991401 -0.5 0  0.1999999999991678 -0.5 0  0.2099999999991955 -0.5 0  0.2199999999992234 -0.5 0  0.2299999999992511 -0.5 0  0.2399999999992788 -0.5 0  0.2499999999993066 -0.5 0  0.2599999999993342 -0.5 0  0.269999999999362 -0.5 0  0.2799999999993897 -0.5 0  0.2899999999994175 -0.5 0  0.2999999999994452 -0.5 0  0.3099999999994729 -0.5 0  0.3199999999995007 -0.5 0  0.3299999999995284 -0.5 0  0.3399999999995562 -0.5 0  0.3499999999995839 -0.5 0  0.3599999999996116 -0.5 0  0.3699999999996393 -0.5 0  0.379999999999667 -0.5 0  0.3899999999996949 -0.5 0  0.3999999999997226 -0.5 0  0.4099999999997503 -0.5 0  0.419999999999778 -0.5 0  0.4299999999998058 -0.5 0  0.4399999999998336 -0.5 0  0.4499999999998613 -0.5 0  0.4599999999998891 -0.5 0  0.4699999999999167 -0.5 0  0.4799999999999445 -0.5 0  0.4899999999999722 -0.5 0  0.5 -0.4902110204681464 0  0.5 -0.4804459958734807 0  0.5 -0.4707048677450883 0  0.5 -0.4609875815766065 0  0.5 -0.4512940759251849 0  0.5 -0.4416242912883993 0  0.5 -0.4319781678689807 0  0.5 -0.4223556545383647 0  0.5 -0.4127566896324213 0  0.5 -0.4031812128200121 0  0.5 -0.3936291733057916 0  0.5 -0.3841005081172659 0  0.5 -0.3745951585781932 0  0.5 -0.3651130778999337 0  0.5 -0.3556541993788045 0  0.5 -0.3462184677228392 0  0.5 -0.3368058273705318 0  0.5 -0.3274162224888609 0  0.5 -0.3180495969712945 0  0.5 -0.3087058944357755 0  0.5 -0.299385058222682 0  0.5 -0.2900870313927414 0  0.5 -0.2808117567250807 0  0.5 -0.2715591844628491 0  0.5 -0.2623292564012653 0  0.5 -0.253121909553727 0  0.5 -0.2439371050851549 0  0.5 -0.2347747685524501 0  0.5 -0.2256348634421331 0  0.5 -0.2165173209784076 0  0.5 -0.207422087829958 0  0.5 -0.1983491207029381 0  0.5 -0.1892983550950482 0  0.5 -0.1802697378305253 0  0.5 -0.1712632154965152 0  0.5 -0.1622787344187354 0  0.5 -0.1533162406595534 0  0.5 -0.1443756800160514 0  0.5 -0.1354569980180493 0  0.5 -0.1265601399261414 0  0.5 -0.1176850622761093 0  0.5 -0.1088317009011999 0  0.5 -0.09166666666668973 0  0.5 -0.08333333333337943 0  0.5 -0.07500000000006915 0  0.5 -0.06666666666675886 0  0.5 -0.05833333333344858 0  0.5 -0.05000000000013693 0  0.5 -0.04166666666678191 0  0.5 -0.03333333333342643 0  0.5 -0.02500000000006916 0  0.5 -0.01666666666671188 0  0.5 -0.00833333333335548 0  0.5 0.008333333333318314 0  0.5 0.01666666666663358 0  0.5 0.02499999999994162 0  0.5 0.03333333333325101 0  0.5 0.04166666666655769 0  0.5 0.04999999999986843 0  0.5 0.05833333333322258 0  0.5 0.06666666666657715 0  0.5 0.07499999999993352 0  0.5 0.08333333333328992 0  0.5 0.09166666666664541 0  0.5 0.1088317009011616 0  0.5 0.1176850622760307 0  0.5 0.1265601399260203 0  0.5 0.1354569980178909 0  0.5 0.1443756800158549 0  0.5 0.153316240659315 0  0.5 0.1622787344184454 0  0.5 0.1712632154961752 0  0.5 0.1802697378301332 0  0.5 0.1892983550946039 0  0.5 0.1983491207024433 0  0.5 0.2074220878294123 0  0.5 0.216517320977811 0  0.5 0.2256348634414833 0  0.5 0.2347747685517479 0  0.5 0.2439371050844009 0  0.5 0.2531219095529224 0  0.5 0.2623292564004089 0  0.5 0.2715591844619371 0  0.5 0.2808117567241139 0  0.5 0.290087031391723 0  0.5 0.2993850582216101 0  0.5 0.3087058944347426 0  0.5 0.3180495969703129 0  0.5 0.3274162224879299 0  0.5 0.3368058273696494 0  0.5 0.3462184677220051 0  0.5 0.3556541993780186 0  0.5 0.3651130778991989 0  0.5 0.3745951585775107 0  0.5 0.3841005081166359 0  0.5 0.3936291733052134 0  0.5 0.4031812128194852 0  0.5 0.412756689631945 0  0.5 0.4223556545379392 0  0.5 0.431978167868607 0  0.5 0.4416242912880781 0  0.5 0.4512940759249164 0  0.5 0.4609875815763912 0  0.5 0.4707048677449264 0  0.5 0.4804459958733726 0  0.5 0.4902110204680924 0  0.4900000000000277 0.5 0  0.4800000000000555 0.5 0  0.4700000000000832 0.5 0  0.4600000000001109 0.5 0  0.4500000000001387 0.5 0  0.4400000000001664 0.5 0  0.4300000000001942 0.5 0  0.4200000000002219 0.5 0  0.4100000000002497 0.5 0  0.4000000000002774 0.5 0  0.3900000000003052 0.5 0  0.3800000000003328 0.5 0  0.3700000000003606 0.5 0  0.3600000000003883 0.5 0  0.3500000000004161 0.5 0  0.3400000000004438 0.5 0  0.3300000000004716 0.5 0  0.3200000000004993 0.5 0  0.3100000000005271 0.5 0  0.3000000000005548 0.5 0  0.2900000000005825 0.5 0  0.2800000000006103 0.5 0  0.2700000000006381 0.5 0  0.2600000000006658 0.5 0  0.2500000000006935 0.5 0  0.2400000000007212 0.5 0  0.230000000000749 0.5 0  0.2200000000007767 0.5 0  0.2100000000008044 0.5 0  0.2000000000008322 0.5 0  0.19000000000086 0.5 0  0.1800000000008877 0.5 0  0.1700000000009154 0.5 0  0.1600000000009431 0.5 0  0.1500000000009709 0.5 0  0.1400000000009986 0.5 0  0.1300000000010264 0.5 0  0.1200000000010541 0.5 0  0.1100000000010818 0.5 0  0.1000000000011096 0.5 0  0.09000000000113734 0.5 0  0.08000000000116503 0.5 0  0.07000000000119283 0.5 0  0.06000000000122058 0.5 0  0.05000000000124827 0.5 0  0.04000000000127607 0.5 0  0.03000000000130376 0.5 0  0.02000000000133151 0.5 0  0.01000000000135925 0.5 0  1.376121439022882e-12 0.5 0  -0.009999999998640763 0.5 0  -0.01999999999866864 0.5 0  -0.02999999999869629 0.5 0  -0.03999999999872406 0.5 0  -0.04999999999875182 0.5 0  -0.05999999999877947 0.5 0  -0.06999999999880724 0.5 0  -0.079999999998835 0.5 0  -0.08999999999886266 0.5 0  -0.09999999999889042 0.5 0  -0.1099999999989182 0.5 0  -0.1199999999989459 0.5 0  -0.1299999999989737 0.5 0  -0.1399999999990014 0.5 0  -0.1499999999990291 0.5 0  -0.1599999999990568 0.5 0  -0.1699999999990847 0.5 0  -0.1799999999991124 0.5 0  -0.1899999999991401 0.5 0  -0.1999999999991678 0.5 0  -0.2099999999991955 0.5 0  -0.2199999999992234 0.5 0  -0.2299999999992511 0.5 0  -0.2399999999992788 0.5 0  -0.2499999999993066 0.5 0  -0.2599999999993342 0.5 0  -0.269999999999362 0.5 0  -0.2799999999993897 0.5 0  -0.2899999999994175 0.5 0  -0.2999999999994452 0.5 0  -0.3099999999994729 0.5 0  -0.3199999999995007 0.5 0  -0.3299999999995284 0.5 0  -0.3399999999995562 0.5 0  -0.3499999999995839 0.5 0  -0.3599999999996116 0.5 0  -0.3699999999996393 0.5 0  -0.379999999999667 0.5 0  -0.3899999999996949 0.5 0  -0.3999999999997226 0.5 0  -0.4099999999997503 0.5 0  -0.419999999999778 0.5 0  -0.4299999999998058 0.5 0  -0.4399999999998336 0.5 0  -0.4499999999998613 0.5 0  -0.4599999999998891 0.5 0  -0.4699999999999167 0.5 0  -0.4799999999999445 0.5 0  -0.4899999999999722 0.5 0  -0.5 0.4902110204681464 0  -0.5 0.4804459958734807 0  -0.5 0.4707048677450883 0  -0.5 0.4609875815766065 0  -0.5 0.4512940759251849 0  -0.5 0.4416242912883993 0  -0.5 0.4319781678689807 0  -0.5 0.4223556545383647 0  -0.5 0.4127566896324213 0  -0.5 0.4031812128200121 0  -0.5 0.3936291733057916 0  -0.5 0.3841005081172659 0  -0.5 0.3745951585781932 0  -0.5 0.3651130778999337 0  -0.5 0.3556541993788045 0  -0.5 0.3462184677228392 0  -0.5 0.3368058273705318 0  -0.5 0.3274162224888609 0  -0.5 0.3180495969712945 0  -0.5 0.3087058944357755 0  -0.5 0.299385058222682 0  -0.5 0.2900870313927414 0  -0.5 0.2808117567250807 0  -0.5 0.2715591844628491 0  -0.5 0.2623292564012653 0  -0.5 0.253121909553727 0  -0.5 0.2439371050851549 0  -0.5 0.2347747685524501 0  -0.5 0.2256348634421331 0  -0.5 0.2165173209784076 0  -0.5 0.207422087829958 0  -0.5 0.1983491207029381 0  -0.5 0.1892983550950482 0  -0.5 0.1802697378305253 0  -0.5 0.1712632154965152 0  -0.5 0.1622787344187354 0  -0.5 0.1533162406595534 0  -0.5 0.1443756800160514 0  -0.5 0.1354569980180493 0  -0.5 0.1265601399261414 0  -0.5 0.1176850622761093 0  -0.5 0.1088317009011999 0  -0.5 0.09167500000001694 0  -0.5 0.08335000000003931 0  -0.5 0.07502500000006167 0  -0.5 0.06670000000008947 0  -0.5 0.05837500000011001 0  -0.5 0.0500500000001328 0  -0.5 0.0417250000001127 0  -0.5 0.03340000000008944 0  -0.5 0.02507500000006573 0  -0.5 0.01675000000004653 0  -0.5 0.008425000000027341 
[...]
<PointData  Vectors="f_20"> 
<DataArray  type="Float64"  Name="f_20"  NumberOfComponents="3" format="ascii">-6.0145418250962793e-04 2.0220999981021824e-03 0.0000000000000000e+00  0.0000000000000000e+00 0.0000000000000000e+00 0.0000000000000000e+00  0.0000000000000000e+00 0.0000000000000000e+00 0.0000000000000000e+00  -1.1703760320568479e-03 2.1076958279936621e-03 0.0000000000000000e+00  -8.2683411310836017e-04 4.1999999999999997e-03 0.0000000000000000e+00  2.4631089313449520e-04 4.1999999999999997e-03 0.0000000000000000e+00  -2.8935820577863001e-04 4.3991853155675668e-03 0.0000000000000000e+00  -2.2725935451338748e-04 -1.2047931701637156e-04 0.0000000000000000e+00  -1.1445035856920680e-03 2.4305728055509543e-03 0.0000000000000000e+00  -1.1067588853651718e-03 1.7925187703684367e-03 0.0000000000000000e+00  -1.4083525844992180e-04 -1.1960516516965808e-04 0.0000000000000000e+00  -1.5075631235003149e-04 4.3986120794357320e-03 0.0000000000000000e+00  0.0000000000000000e+00 0.0000000000000000e+00 0.0000000000000000e+00  0.0000000000000000e+00 0.0000000000000000e+00 0.0000000000000000e+00  0.0000000000000000e+00 0.0000000000000000e+00 0.0000000000000000e+00  0.0000000000000000e+00 0.0000000000000000e+00 0.0000000000000000e+00  0.0000000000000000e+00 0.0000000000000000e+00 0.0000000000000000e+00  0.0000000000000000e+00 0.0000000000000000e+00 0.0000000000000000e+00  0.0000000000000000e+00 0.0000000000000000e+00 0.0000000000000000e+00  0.0000000000000000e+00 0.0000000000000000e+00 0.0000000000000000e+00  0.0000000000000000e+00 0.0000000000000000e+00 0.0000000000000000e+00  0.0000000000000000e+00 0.0000000000000000e+00 0.0000000000000000e+00  0.0000000000000000e+00 0.0000000000000000e+00 0.0000000000000000e+00  0.0000000000000000e+00 0.0000000000000000e+00 0.0000000000000000e+00  0.0000000000000000e+00 0.0000000000000000e+00 0.0000000000000000e+00  0.0000000000000000e+00 0.0000000000000000e+00 0.0000000000000000e+00  0.0000000000000000e+00 0.0000000000000000e+00 0.0000000000000000e+00  0.0000000000000000e+00 0.0000000000000000e+00 0.0000000000000000e+00  0.0000000000000000e+00 0.0000000000000000e+00 0.0000000000000000e+00  0.0000000000000000e+00 0.0000000000000000e+00 0.0000000000000000e+00  0.0000000000000000e+00 0.0000000000000000e+00 0.0000000000000000e+00  0.0000000000000000e+00 0.0000000000000000e+00 0.0000000000000000e+00  0.0000000000000000e+00 0.0000000000000000e+00 0.0000000000000000e+00  0.0000000000000000e+00 0.0000000000000000e+00 0.0000000000000000e+00  0.0000000000000000e+00 0.0000000000000000e+00 0.0000000000000000e+00  0.0000000000000000e+00 0.0000000000000000e+00 0.0000000000000000e+00  0.0000000000000000e+00 0.0000000000000000e+00 0.0000000000000000e+00  0.0000000000000000e+00 0.0000000000000000e+00 0.0000000000000000e+00  0.0000000000000000e+00 0.0000000000000000e+00 0.0000000000000000e+00  0.0000000000000000e+00 0.0000000000000000e+00 0.0000000000000000e+00  0.0000000000000000e+00 0.0000000000000000e+00 0.0000000000000000e+00  0.0000000000000000e+00 0.0000000000000000e+00 0.0000000000000000e+00  0.0000000000000000e+00 0.0000000000000000e+00 0.0000000000000000e+00  0.0000000000000000e+00 0.0000000000000000e+00 0.0000000000000000e+00  0.0000000000000000e+00 0.0000000000000000e+00 0.0000000000000000e+00  0.0000000000000000e+00 0.0000000000000000e+00 0.0000000000000000e+00  0.0000000000000000e+00 0.0000000000000000e+00 0.0000000000000000e+00  0.0000000000000000e+00 0.0000000000000000e+00 0.0000000000000000e+00  0.0000000000000000e+00 0.0000000000000000e+00 0.0000000000000000e+00  0.0000000000000000e+00 0.0000000000000000e+00 0.0000000000000000e+00  0.0000000000000000e+00 0.0000000000000000e+00 0.0000000000000000e+00  0.0000000000000000e+00 0.0000000000000000e+00 0.0000000000000000e+00  0.0000000000000000e+00 0.0000000000000000e+00 0.0000000000000000e+00  0.0000000000000000e+00 0.0000000000000000e+00 0.0000000000000000e+00  0.0000000000000000e+00 0.0000000000000000e+00 0.0000000000000000e+00  0.0000000000000000e+00 0.0000000000000000e+00 0.0000000000000000e+00  0.0000000000000000e+00 0.0000000000000000e+00 0.0000000000000000e+00  0.0000000000000000e+00 0.0000000000000000e+00 0.0000000000000000e+00  0.0000000000000000e+00 0.0000000000000000e+00 0.0000000000000000e+00  0.0000000000000000e+00 0.0000000000000000e+00 0.0000000000000000e+00  0.0000000000000000e+00 0.0000000000000000e+00 0.0000000000000000e+00  0.0000000000000000e+00 0.0000000000000000e+00 0.0000000000000000e+00  0.0000000000000000e+00 0.0000000000000000e+00 0.0000000000000000e+00  0.0000000000000000e+00 0.0000000000000000e+00 0.0000000000000000e+00  0.0000000000000000e+00 0.0000000000000000e+00 0.0000000000000000e+00  0.0000000000000000e+00 0.0000000000000000e+00 0.0000000000000000e+00  0.0000000000000000e+00 0.0000000000000000e+00 0.0000000000000000e+00  0.0000000000000000e+00 0.0000000000000000e+00 0.0000000000000000e+00  0.0000000000000000e+00 0.0000000000000000e+00 0.0000000000000000e+00  0.0000000000000000e+00 0.0000000000000000e+00 0.0000000000000000e+00  0.0000000000000000e+00 0.0000000000000000e+00 0.0000000000000000e+00  0.0000000000000000e+00 0.0000000000000000e+00 0.0000000000000000e+00  0.0000000000000000e+00 0.0000000000000000e+00 0.0000000000000000e+00  0.0000000000000000e+00 0.0000000000000000e+00 0.0000000000000000e+00  0.0000000000000000e+00 0.0000000000000000e+00 0.0000000000000000e+00  0.0000000000000000e+00 0.0000000000000000e+00 0.0000000000000000e+00  0.0000000000000000e+00 0.0000000000000000e+00 0.0000000000000000e+00  0.0000000000000000e+00 0.0000000000000000e+00 0.0000000000000000e+00  0.0000000000000000e+00 0.0000000000000000e+00 0.0000000000000000e+00  0.0000000000000000e+00 0.0000000000000000e+00 0.0000000000000000e+00  0.0000000000000000e+00 0.0000000000000000e+00 0.0000000000000000e+00  0.0000000000000000e+00 0.0000000000000000e+00 0.0000000000000000e+00  0.0000000000000000e+00 0.0000000000000000e+00 0.0000000000000000e+00  0.0000000000000000e+00 0.0000000000000000e+00 0.0000000000000000e+00  0.0000000000000000e+00 0.0000000000000000e+00 0.0000000000000000e+00  0.0000000000000000e+00 0.0000000000000000e+00 0.0000000000000000e+00  0.0000000000000000e+00 0.0000000000000000e+00 0.0000000000000000e+00  0.0000000000000000e+00 0.0000000000000000e+00 0.0000000000000000e+00  0.0000000000000000e+00 0.0000000000000000e+00 0.0000000000000000e+00  0.0000000000000000e+00 0.0000000000000000e+00 0.0000000000000000e+00  0.0000000000000000e+00 0.0000000000000000e+00 0.0000000000000000e+00  0.0000000000000000e+00 0.0000000000000000e+00 0.0000000000000000e+00  0.0000000000000000e+00 0.0000000000000000e+00 0.0000000000000000e+00  0.0000000000000000e+00 0.0000000000000000e+00 0.0000000000000000e+00  0.0000000000000000e+00 0.0000000000000000e+00 0.0000000000000000e+00  0.0000000000000000e+00 0.0000000000000000e+00 0.0000000000000000e+00  0.0000000000000000e+00 0.0000000000000000e+00 0.0000000000000000e+00  0.0000000000000000e+00 0.0000000000000000e+00 0.0000000000000000e+00  0.0000000000000000e+00 0.0000000000000000e+00 0.0000000000000000e+00  0.0000000000000000e+00 0.0000000000000000e+00 0.0000000000000000e+00  0.0000000000000000e+00 0.0000000000000000e+00 0.0000000000000000e+00  0.0000000000000000e+00 0.0000000000000000e+00 0.0000000000000000e+00  0.0000000000000000e+00 0.0000000000000000e+00 0.0000000000000000e+00  0.0000000000000000e+00 0.0000000000000000e+00 0.0000000000000000e+00  0.0000000000000000e+00 0.0000000000000000e+00 0.0000000000000000e+00  0.0000000000000000e+00 0.0000000000000000e+00 0.0000000000000000e+00  0.0000000000000000e+00 0.0000000000000000e+00 0.0000000000000000e+00  0.0000000000000000e+00 0.0000000000000000e+00 0.0000000000000000e+00  0.0000000000000000e+00 0.0000000000000000e+00 0.0000000000000000e+00  0.0000000000000000e+00 0.0000000000000000e+00 0.0000000000000000e+00  0.0000000000000000e+00 0.0000000000000000e+00 0.0000000000000000e+00  -1.0604866141626854e-04 1.1066713183461202e-04 0.0000000000000000e+00  -1.7390680814541285e-04 1.9024996479774861e-04 0.0000000000000000e+00  -2.2904170329356090e-04 2.5758701063503483e-04 0.0000000000000000e+00  -2.7721071806554112e-04 3.1783134387896293e-04 0.0000000000000000e+00  -3.2026609983160635e-04 3.7329392307049614e-04 0.0000000000000000e+00  -3.5967633731247566e-04 4.2554226975782117e-04 0.0000000000000000e+00  -3.9659061792487001e-04 4.7535956595513894e-04 0.0000000000000000e+00  -4.3055939234702098e-04 5.2343543924070343e-04 0.0000000000000000e+00  -4.6249753928451350e-04 5.7010960524572578e-04 0.0000000000000000e+00  -4.9310049909296293e-04 6.1542987603139838e-04 0.0000000000000000e+00  -5.2209697542338486e-04 6.5991738155025525e-04 0.0000000000000000e+00  -5.4994976949037592e-04 7.0330400008675837e-04 0.0000000000000000e+00  -5.7651957543268864e-04 7.4617409812648128e-04 0.0000000000000000e+00  -6.0231890691920512e-04 7.8807408954901061e-04 0.0000000000000000e+00  -6.2718736543042558e-04 8.2955624705859088e-04 0.0000000000000000e+00  -6.5149686389451831e-04 8.7033565162821490e-04 0.0000000000000000e+00  -6.7489066139433701e-04 9.1055386483853459e-04 0.0000000000000000e+00  -6.9769743158209650e-04 9.5015724437595196e-04 0.0000000000000000e+00  -7.2004495160843374e-04 9.8942309512166696e-04 0.0000000000000000e+00  -7.4171924874024840e-04 1.0280465084062736e-03 0.0000000000000000e+00  -7.6288751244455843e-04 1.0662344251420265e-03 0.0000000000000000e+00  -7.8357044416880518e-04 1.1039788613300613e-03 0.0000000000000000e+00  -8.0379323109678528e-04 1.1412343347498002e-03 0.0000000000000000e+00  -8.2355008488144035e-04 1.1780460464995899e-03 0.0000000000000000e+00  -8.4285691154566036e-04 1.2143482157280295e-03 0.0000000000000000e+00  -8.6170992082055945e-04 1.2501762841560975e-03 0.0000000000000000e+00  -8.8013549221576043e-04 1.2854654933768478e-03 0.0000000000000000e+00  -8.9823302042508937e-04 1.3204714577644309e-03 0.0000000000000000e+00  -9.1572543978898533e-04 1.3549465988967140e-03 0.0000000000000000e+00  -9.3275084415479249e-04 1.3889578360874219e-03 0.0000000000000000e+00  -9.4932625178979031e-04 1.4225669825100888e-03 0.0000000000000000e+00  -9.6547692376099451e-04 1.4556651628252826e-03 0.0000000000000000e+00  -9.8106239239713171e-04 1.4883277606248363e-03 0.0000000000000000e+00  -9.9620644393413156e-04 1.5204847423989660e-03 0.0000000000000000e+00  -1.0108280523504288e-03 1.5523289038372624e-03 0.0000000000000000e+00  -1.0248273094910247e-03 1.5837218786820771e-03 0.0000000000000000e+00  -1.0383019333131435e-03 1.6147112801881702e-03 0.0000000000000000e+00  -1.0512640952071806e-03 1.6451800841353272e-03 0.0000000000000000e+00  -1.0635415555854011e-03 1.6753816455552012e-03 0.0000000000000000e+00  -1.0753094683308918e-03 1.7051671703328468e-03 0.0000000000000000e+00  -1.0863970395598177e-03 1.7346630295258585e-03 0.0000000000000000e+00  -1.0968920729741802e-03 1.7636952970542261e-03 0.0000000000000000e+00  -1.1153902030459884e-03 1.8194513464086792e-03 0.0000000000000000e+00  -1.1234990989477146e-03 1.8461236586658763e-03 0.0000000000000000e+00  -1.1309829083819964e-03 1.8727538768409625e-03 0.0000000000000000e+00  -1.1378887808938338e-03 1.8990947688983992e-03 0.0000000000000000e+00  -1.1442123102223289e-03 1.9254552937929806e-03 0.0000000000000000e+00  -1.1498239632706797e-03 1.9517331045827500e-03 0.0000000000000000e+00  -1.1548742439906250e-03 1.9777409405827072e-03 0.0000000000000000e+00  -1.1592683706541972e-03 2.0037617473621025e-03 0.0000000000000000e+00  -1.1630318859810784e-03 2.0297764776011609e-03 0.0000000000000000e+00  -1.1660425540219129e-03 2.0558111646481496e-03 0.0000000000000000e+00  -1.1685335044140130e-03 2.0817045875751185e-03 0.0000000000000000e+00  -1.1714872838230561e-03 2.1337368362843510e-03 0.0000000000000000e+00  -1.1719948492485721e-03 2.1598142324388099e-03 0.0000000000000000e+00  -1.1718962889472504e-03 2.1861001445065247e-03 0.0000000000000000e+00  -1.1711632549080910e-03 2.2123710893704458e-03 0.0000000000000000e+00  -1.1698369672270973e-03 2.2389245229986663e-03 0.0000000000000000e+00  -1.1678879896686299e-03 2.2656782515820223e-03 0.0000000000000000e+00  -1.1653081694107568e-03 2.2924803652498798e-03 0.0000000000000000e+00  -1.1622298017915651e-03 2.3195986530528132e-03 0.0000000000000000e+00  -1.1586279060800311e-03 2.3469857014965035e-03 0.0000000000000000e+00  -1.1543571403870767e-03 2.3746241077410597e-03 0.0000000000000000e+00  -1.1496775072853190e-03 2.4024067665344940e-03 0.0000000000000000e+00  -1.1384442881257973e-03 2.4608265964729896e-03 0.0000000000000000e+00  -1.1318778415027656e-03 2.4914518160107607e-03 0.0000000000000000e+00  -1.1248548499678530e-03 2.5226535414109956e-03 0.0000000000000000e+00  -1.1173249035548688e-03 2.5542641302800026e-03 0.0000000000000000e+00  -1.1094995240987545e-03 2.5864329552213257e-03 0.0000000000000000e+00  -1.1011350984561563e-03 2.6190340356172484e-03 0.0000000000000000e+00  -1.0924833753030141e-03 2.6522603636272343e-03 0.0000000000000000e+00  -1.0834728620371015e-03 2.6860519640272197e-03 0.0000000000000000e+00  -1.0741673466808529e-03 2.7204300912825217e-03 0.0000000000000000e+00  -1.0645385532751571e-03 2.7553056010798951e-03 0.0000000000000000e+00  -1.0547967329628295e-03 2.7908042964200643e-03 0.0000000000000000e+00  -1.0448007359839880e-03 2.8268891883863573e-03 0.0000000000000000e+00  -1.0347051107211153e-03 2.8635775977200535e-03 0.0000000000000000e+00  -1.0245144472755955e-03 2.9008791258982075e-03 0.0000000000000000e+00  -1.0142324050157580e-03 2.9387860707536257e-03 0.0000000000000000e+00  -1.0038515031398536e-03 2.9772758181709474e-03 0.0000000000000000e+00  -9.9348012332301796e-04 3.0162962239144793e-03 0.0000000000000000e+00  -9.8320654725106448e-04 3.0559401329097930e-03 0.0000000000000000e+00  -9.7301785568601972e-04 3.0961484187149385e-03 0.0000000000000000e+00  -9.6292748147352666e-04 3.1369432411730062e-03 0.0000000000000000e+00  -9.5298497661154720e-04 3.1783315415364463e-03 0.0000000000000000e+00  -9.4315864736365035e-04 3.2202970416989538e-03 0.0000000000000000e+00  -9.3364747941224820e-04 3.2627542609926456e-03 0.0000000000000000e+00  -9.2429352330018245e-04 3.3057906028530061e-03 0.0000000000000000e+00  -9.1528221277873962e-04 3.3492838939133038e-03 0.0000000000000000e+00  -9.0652698731061776e-04 3.3933359720722729e-03 0.0000000000000000e+00  -8.9810912569029770e-04 3.4378746412133169e-03 0.0000000000000000e+00  -8.9006728370470592e-04 3.4828110860218890e-03 0.0000000000000000e+00  -8.8242360419751636e-04 3.5281950878501191e-03 0.0000000000000000e+00  -8.7513796554184147e-04 3.5740990300933339e-03 0.0000000000000000e+00  -8.6837131954334301e-04 3.6202801116020145e-03 0.0000000000000000e+00  -8.6197226982561836e-04 3.6669531307081623e-03 0.0000000000000000e+00  -8.5609514651776165e-04 3.7139727217317176e-03 0.0000000000000000e+00  -8.5069805279042968e-04 3.7614548137857354e-03 0.0000000000000000e+00  -8.4582085419417693e-04 3.8091240571617151e-03 0.0000000000000000e+00  -8.4145487931695556e-04 3.8571018729372029e-03 0.0000000000000000e+00  -8.3765919815857997e-04 3.9054450149421495e-03 0.0000000000000000e+00  -8.3441610041965668e-04 3.9539889477903430e-03 0.0000000000000000e+00  -8.3175092130819111e-04 4.0028078923214968e-03 0.0000000000000000e+00  -8.2960466587203325e-04 4.0518598370256828e-03 0.0000000000000000e+00  -8.2823915288414191e-04 4.1011026650210813e-03 0.0000000000000000e+00  -8.2723830314399471e-04 4.1504701041152614e-03 0.0000000000000000e+00  -8.0539033494942455e-04 4.1999999999999997e-03 0.0000000000000000e+00  -7.8403519592352749e-04 4.1999999999999997e-03 0.0000000000000000e+00  -7.6292453848877451e-04 4.1999999999999997e-03 0.0000000000000000e+00  -7.4196784253154459e-04 4.1999999999999997e-03 0.0000000000000000e+00  -7.2109569186566713e-04 4.1999999999999997e-03 0.0000000000000000e+00  -7.0047337998468062e-04 4.1999999999999997e-03 0.0000000000000000e+00  -6.7986949186532662e-04 4.1999999999999997e-03 0.0000000000000000e+00  -6.5931909960936330e-04 4.1999999999999997e-03 0.0000000000000000e+00  -6.3878036192400013e-04 4.1999999999999997e-03 0.0000000000000000e+00  -6.1840530213120497e-04 4.1999999999999997e-03 0.0000000000000000e+00  -5.9797661493476788e-04 4.1999999999999997e-03 0.0000000000000000e+00  -5.7756136122211622e-04 4.1999999999999997e-03 0.0000000000000000e+00  -5.5715035037853561e-04 4.1999999999999997e-03 0.0000000000000000e+00  -5.3675146628128813e-04 4.1999999999999997e-03 0.0000000000000000e+00  -5.1635193100805967e-04 4.1999999999999997e-03 0.0000000000000000e+00  -4.9589898142324426e-04 4.1999999999999997e-03 0.0000000000000000e+00  -4.7543027581005865e-04 4.1999999999999997e-03 0.0000000000000000e+00  -4.5495845522777799e-04 4.1999999999999997e-03 0.0000000000000000e+00  -4.3447957735852480e-04 4.1999999999999997e-03 0.0000000000000000e+00  -4.1399047791766609e-04 4.1999999999999997e-03 0.0000000000000000e+00  -3.9350186072806541e-04 4.1999999999999997e-03 0.0000000000000000e+00  -3.7301597622041590e-04 4.1999999999999997e-03 0.0000000000000000e+00  -3.5254722294957350e-04 4.1999999999999997e-03 0.0000000000000000e+00  -3.3212238305962478e-04 4.1999999999999997e-03 0.0000000000000000e+00  -3.1171179466278197e-04 4.1999999999999997e-03 0.0000000000000000e+00  -2.9136806322564338e-04 4.1999999999999997e-03 0.0000000000000000e+00  -2.7111491035374305e-04 4.1999999999999997e-03 0.0000000000000000e+00  -2.5092627325350137e-04 4.1999999999999997e-03 0.0000000000000000e+00  -2.3090911283176412e-04 4.1999999999999997e-03 0.0000000000000000e+00  -2.1101892216224564e-04 4.1999999999999997e-03 0.0000000000000000e+00  -1.9126683854871559e-04 4.1999999999999997e-03 0.0000000000000000e+00  -1.7172420423385804e-04 4.1999999999999997e-03 0.0000000000000000e+00  -1.5237008896633211e-04 4.1999999999999997e-03 0.0000000000000000e+00  -1.3317664991415397e-04 4.1999999999999989e-03 0.0000000000000000e+00  -1.1436387353987409e-04 4.1999999999999997e-03 0.0000000000000000e+00  -9.5765813732255124e-05 4.1999999999999997e-03 0.0000000000000000e+00  -7.7475028495087460e-05 4.1999999999999997e-03 0.0000000000000000e+00  -5.9517968071759433e-05 4.1999999999999997e-03 0.0000000000000000e+00  -4.1829925717067762e-05 4.1999999999999997e-03 0.0000000000000000e+00  -2.4590783947753156e-05 4.1999999999999997e-03 0.0000000000000000e+00  -7.7706142043252412e-06 4.1999999999999989e-03 0.0000000000000000e+00  8.5967409299810657e-06 4.1999999999999997e-03 0.0000000000000000e+00  2.4587972042329190e-05 4.1999999999999997e-03 0.0000000000000000e+00  4.0187013075637768e-05 4.1999999999999997e-03 0.0000000000000000e+00  5.5183055616927157e-05 4.1999999999999997e-03 0.0000000000000000e+00  6.9802493474717666e-05 4.1999999999999997e-03 0.0000000000000000e+00  8.3932082805529478e-05 4.1999999999999997e-03 0.0000000000000000e+00  9.7362722234565631e-05 4.1999999999999997e-03 0.0000000000000000e+00  1.1036215166059581e-04 4.1999999999999997e-03 0.0000000000000000e+00  1.2291884841065363e-04 4.1999999999999997e-03 0.0000000000000000e+00  1.3490092614815871e-04 4.1999999999999997e-03 0.0000000000000000e+00  1.4625071374791359e-04 4.1999999999999997e-03 0.0000000000000000e+00  1.5706548612974585e-04 4.1999999999999997e-03 0.0000000000000000e+00  1.6741105468975144e-04 4.1999999999999997e-03 0.0000000000000000e+00  1.7714170479307001e-04 4.1999999999999997e-03 0.0000000000000000e+00  1.8631408995738511e-04 4.1999999999999997e-03 0.0000000000000000e+00  1.9499168068333312e-04 4.1999999999999997e-03 0.0000000000000000e+00  2.0319051959470226e-04 4.1999999999999997e-03 0.0000000000000000e+00  2.1071069927524041e-04 4.1999999999999997e-03 0.0000000000000000e+00  2.1782809821350728e-04 4.1999999999999997e-03 0.0000000000000000e+00  2.2440804888236064e-04 4.1999999999999997e-03 0.0000000000000000e+00  2.3049678040159804e-04 4.1999999999999997e-03 0.0000000000000000e+00  2.3605439392346533e-04 4.1999999999999997e-03 0.0000000000000000e+00  2.4124830907709129e-04 4.1999999999999997e-03 0.0000000000000000e+00  2.4602400457121771e-04 4.1999999999999997e-03 0.0000000000000000