<?xml version="1.0"?>
<VTKFile type="UnstructuredGrid"  version="0.1"  >
<UnstructuredGrid>
<Piece  NumberOfPoints="15540" NumberOfCells="30546">
<Points>
<DataArray  type="Float64"  NumberOfComponents="3"  format="ascii">0 0 0  -0.5 -0.5 0  0.5 -0.5 0  0.5 0 0  0.5 0.5 0  -0.5 0.5 0  -0.5 0.0001 0  -0.5 -0.0001 0  0.5 0.1 0  0.5 -0.1 0  -0.5 -0.1 0  -0.5 0.1 0  -0.4900000000000277 -0.5 0  -0.4800000000000555 -0.5 0  -0.4700000000000832 -0.5 0  -0.4600000000001109 -0.5 0  -0.4500000000001387 -0.5 0  -0.4400000000001664 -0.5 0  -0.4300000000001942 -0.5 0  -0.4200000000002219 -0.5 0  -0.4100000000002497 -0.5 0  -0.4000000000002774 -0.5 0  -0.3900000000003052 -0.5 0  -0.3800000000003328 -0.5 0  -0.3700000000003606 -0.5 0  -0.3600000000003883 -0.5 0  -0.3500000000004161 -0.5 0  -0.3400000000004438 -0.5 0  -0.3300000000004716 -0.5 0  -0.3200000000004993 -0.5 0  -0.3100000000005271 -0.5 0  -0.3000000000005548 -0.5 0  -0.2900000000005825 -0.5 0  -0.2800000000006103 -0.5 0  -0.2700000000006381 -0.5 0  -0.2600000000006658 -0.5 0  -0.2500000000006935 -0.5 0  -0.2400000000007212 -0.5 0  -0.230000000000749 -0.5 0  -0.2200000000007767 -0.5 0  -0.2100000000008044 -0.5 0  -0.2000000000008322 -0.5 0  -0.19000000000086 -0.5 0  -0.1800000000008877 -0.5 0  -0.1700000000009154 -0.5 0  -0.1600000000009431 -0.5 0  -0.1500000000009709 -0.5 0  -0.1400000000009986 -0.5 0  -0.1300000000010264 -0.5 0  -0.1200000000010541 -0.5 0  -0.1100000000010818 -0.5 0  -0.1000000000011096 -0.5 0  -0.09000000000113734 -0.5 0  -0.08000000000116503 -0.5 0  -0.07000000000119283 -0.5 0  -0.06000000000122058 -0.5 0  -0.05000000000124827 -0.5 0  -0.04000000000127607 -0.5 0  -0.03000000000130376 -0.5 0  -0.02000000000133151 -0.5 0  -0.01000000000135925 -0.5 0  -1.376121439022882e-12 -0.5 0  0.009999999998640763 -0.5 0  0.01999999999866864 -0.5 0  0.02999999999869629 -0.5 0  0.03999999999872406 -0.5 0  0.04999999999875182 -0.5 0  0.05999999999877947 -0.5 0  0.06999999999880724 -0.5 0  0.079999999998835 -0.5 0  0.08999999999886266 -0.5 0  0.09999999999889042 -0.5 0  0.1099999999989182 -0.5 0  0.1199999999989459 -0.5 0  0.1299999999989737 -0.5 0  0.1399999999990014 -0.5 0  0.1499999999990291 -0.5 0  0.1599999999990568 -0.5 0  0.1699999999990847 -0.5 0  0.1799999999991124 -0.5 0  0.1899999999991401 -0.5 0  0.1999999999991678 -0.5 0  0.2099999999991955 -0.5 0  0.2199999999992234 -0.5 0  0.2299999999992511 -0.5 0  0.2399999999992788 -0.5 0  0.2499999999993066 -0.5 0  0.2599999999993342 -0.5 0  0.269999999999362 -0.5 0  0.2799999999993897 -0.5 0  0.2899999999994175 -0.5 0  0.2999999999994452 -0.5 0  0.3099999999994729 -0.5 0  0.3199999999995007 -0.5 0  0.3299999999995284 -0.5 0  0.3399999999995562 -0.5 0  0.3499999999995839 -0.5 0  0.3599999999996116 -0.5 0  0.3699999999996393 -0.5 0  0.379999999999667 -0.5 0  0.3899999999996949 -0.5 0  0.3999999999997226 -0.5 0  0.4099999999997503 -0.5 0  0.419999999999778 -0.5 0  0.4299999999998058 -0.5 0  0.4399999999998336 -0.5 0  0.4499999999998613 -0.5 0  0.4599999999998891 -0.5 0  0.4699999999999167 -0.5 0  0.4799999999999445 -0.5 0  0.4899999999999722 -0.5 0  0.5 -0.4902110204681464 0  0.5 -0.4804459958734807 0  0.5 -0.4707048677450883 0  0.5 -0.4609875815766065 0  0.5 -0.4512940759251849 0  0.5 -0.4416242912883993 0  0.5 -0.4319781678689807 0  0.5 -0.4223556545383647 0  0.5 -0.4127566896324213 0  0.5 -0.4031812128200121 0  0.5 -0.3936291733057916 0  0.5 -0.3841005081172659 0  0.5 -0.3745951585781932 0  0.5 -0.3651130778999337 0  0.5 -0.3556541993788045 0  0.5 -0.3462184677228392 0  0.5 -0.3368058273705318 0  0.5 -0.3274162224888609 0  0.5 -0.3180495969712945 0  0.5 -0.3087058944357755 0  0.5 -0.299385058222682 0  0.5 -0.2900870313927414 0  0.5 -0.2808117567250807 0  0.5 -0.2715591844628491 0  0.5 -0.2623292564012653 0  0.5 -0.253121909553727 0  0.5 -0.2439371050851549 0  0.5 -0.2347747685524501 0  0.5 -0.2256348634421331 0  0.5 -0.2165173209784076 0  0.5 -0.207422087829958 0  0.5 -0.1983491207029381 0  0.5 -0.1892983550950482 0  0.5 -0.1802697378305253 0  0.5 -0.1712632154965152 0  0.5 -0.1622787344187354 0  0.5 -0.1533162406595534 0  0.5 -0.1443756800160514 0  0.5 -0.1354569980180493 0  0.5 -0.1265601399261414 0  0.5 -0.1176850622761093 0  0.5 -0.1088317009011999 0  0.5 -0.09166666666668973 0  0.5 -0.08333333333337943 0  0.5 -0.07500000000006915 0  0.5 -0.06666666666675886 0  0.5 -0.05833333333344858 0  0.5 -0.05000000000013693 0  0.5 -0.04166666666678191 0  0.5 -0.03333333333342643 0  0.5 -0.02500000000006916 0  0.5 -0.01666666666671188 0  0.5 -0.00833333333335548 0  0.5 0.008333333333318314 0  0.5 0.01666666666663358 0  0.5 0.02499999999994162 0  0.5 0.03333333333325101 0  0.5 0.04166666666655769 0  0.5 0.04999999999986843 0  0.5 0.05833333333322258 0  0.5 0.06666666666657715 0  0.5 0.07499999999993352 0  0.5 0.08333333333328992 0  0.5 0.09166666666664541 0  0.5 0.1088317009011616 0  0.5 0.1176850622760307 0  0.5 0.1265601399260203 0  0.5 0.1354569980178909 0  0.5 0.1443756800158549 0  0.5 0.153316240659315 0  0.5 0.1622787344184454 0  0.5 0.1712632154961752 0  0.5 0.1802697378301332 0  0.5 0.1892983550946039 0  0.5 0.1983491207024433 0  0.5 0.2074220878294123 0  0.5 0.216517320977811 0  0.5 0.2256348634414833 0  0.5 0.2347747685517479 0  0.5 0.2439371050844009 0  0.5 0.2531219095529224 0  0.5 0.2623292564004089 0  0.5 0.2715591844619371 0  0.5 0.2808117567241139 0  0.5 0.290087031391723 0  0.5 0.2993850582216101 0  0.5 0.3087058944347426 0  0.5 0.3180495969703129 0  0.5 0.3274162224879299 0  0.5 0.3368058273696494 0  0.5 0.3462184677220051 0  0.5 0.3556541993780186 0  0.5 0.3651130778991989 0  0.5 0.3745951585775107 0  0.5 0.3841005081166359 0  0.5 0.3936291733052134 0  0.5 0.4031812128194852 0  0.5 0.412756689631945 0  0.5 0.4223556545379392 0  0.5 0.431978167868607 0  0.5 0.4416242912880781 0  0.5 0.4512940759249164 0  0.5 0.4609875815763912 0  0.5 0.4707048677449264 0  0.5 0.4804459958733726 0  0.5 0.4902110204680924 0  0.4900000000000277 0.5 0  0.4800000000000555 0.5 0  0.4700000000000832 0.5 0  0.4600000000001109 0.5 0  0.4500000000001387 0.5 0  0.4400000000001664 0.5 0  0.4300000000001942 0.5 0  0.4200000000002219 0.5 0  0.4100000000002497 0.5 0  0.4000000000002774 0.5 0  0.3900000000003052 0.5 0  0.3800000000003328 0.5 0  0.3700000000003606 0.5 0  0.3600000000003883 0.5 0  0.3500000000004161 0.5 0  0.3400000000004438 0.5 0  0.3300000000004716 0.5 0  0.3200000000004993 0.5 0  0.3100000000005271 0.5 0  0.3000000000005548 0.5 0  0.2900000000005825 0.5 0  0.2800000000006103 0.5 0  0.2700000000006381 0.5 0  0.2600000000006658 0.5 0  0.2500000000006935 0.5 0  0.2400000000007212 0.5 0  0.230000000000749 0.5 0  0.2200000000007767 0.5 0  0.2100000000008044 0.5 0  0.2000000000008322 0.5 0  0.19000000000086 0.5 0  0.1800000000008877 0.5 0  0.1700000000009154 0.5 0  0.1600000000009431 0.5 0  0.1500000000009709 0.5 0  0.1400000000009986 0.5 0  0.1300000000010264 0.5 0  0.1200000000010541 0.5 0  0.1100000000010818 0.5 0  0.1000000000011096 0.5 0  0.09000000000113734 0.5 0  0.08000000000116503 0.5 0  0.07000000000119283 0.5 0  0.06000000000122058 0.5 0  0.05000000000124827 0.5 0  0.04000000000127607 0.5 0  0.03000000000130376 0.5 0  0.02000000000133151 0.5 0  0.01000000000135925 0.5 0  1.376121439022882e-12 0.5 0  -0.009999999998640763 0.5 0  -0.01999999999866864 0.5 0  -0.02999999999869629 0.5 0  -0.03999999999872406 0.5 0  -0.04999999999875182 0.5 0  -0.05999999999877947 0.5 0  -0.06999999999880724 0.5 0  -0.079999999998835 0.5 0  -0.08999999999886266 0.5 0  -0.09999999999889042 0.5 0  -0.1099999999989182 0.5 0  -0.1199999999989459 0.5 0  -0.1299999999989737 0.5 0  -0.1399999999990014 0.5 0  -0.1499999999990291 0.5 0  -0.1599999999990568 0.5 0  -0.1699999999990847 0.5 0  -0.1799999999991124 0.5 0  -0.1899999999991401 0.5 0  -0.1999999999991678 0.5 0  -0.2099999999991955 0.5 0  -0.2199999999992234 0.5 0  -0.2299999999992511 0.5 0  -0.2399999999992788 0.5 0  -0.2499999999993066 0.5 0  -0.2599999999993342 0.5 0  -0.269999999999362 0.5 0  -0.2799999999993897 0.5 0  -0.2899999999994175 0.5 0  -0.2999999999994452 0.5 0  -0.3099999999994729 0.5 0  -0.3199999999995007 0.5 0  -0.3299999999995284 0.5 0  -0.3399999999995562 0.5 0  -0.3499999999995839 0.5 0  -0.3599999999996116 0.5 0  -0.3699999999996393 0.5 0  -0.379999999999667 0.5 0  -0.3899999999996949 0.5 0  -0.3999999999997226 0.5 0  -0.4099999999997503 0.5 0  -0.419999999999778 0.5 0  -0.4299999999998058 0.5 0  -0.4399999999998336 0.5 0  -0.4499999999998613 0.5 0  -0.4599999999998891 0.5 0  -0.4699999999999167 0.5 0  -0.4799999999999445 0.5 0  -0.4899999999999722 0.5 0  -0.5 0.4902110204681464 0  -0.5 0.4804459958734807 0  -0.5 0.4707048677450883 0  -0.5 0.4609875815766065 0  -0.5 0.4512940759251849 0  -0.5 0.4416242912883993 0  -0.5 0.4319781678689807 0  -0.5 0.4223556545383647 0  -0.5 0.4127566896324213 0  -0.5 0.4031812128200121 0  -0.5 0.3936291733057916 0  -0.5 0.3841005081172659 0  -0.5 0.3745951585781932 0  -0.5 0.3651130778999337 0  -0.5 0.3556541993788045 0  -0.5 0.3462184677228392 0  -0.5 0.3368058273705318 0  -0.5 0.3274162224888609 0  -0.5 0.3180495969712945 0  -0.5 0.3087058944357755 0  -0.5 0.299385058222682 0  -0.5 0.2900870313927414 0  -0.5 0.2808117567250807 0  -0.5 0.2715591844628491 0  -0.5 0.2623292564012653 0  -0.5 0.253121909553727 0  -0.5 0.2439371050851549 0  -0.5 0.2347747685524501 0  -0.5 0.2256348634421331 0  -0.5 0.2165173209784076 0  -0.5 0.207422087829958 0  -0.5 0.1983491207029381 0  -0.5 0.1892983550950482 0  -0.5 0.1802697378305253 0  -0.5 0.1712632154965152 0  -0.5 0.1622787344187354 0  -0.5 0.1533162406595534 0  -0.5 0.1443756800160514 0  -0.5 0.1354569980180493 0  -0.5 0.1265601399261414 0  -0.5 0.1176850622761093 0  -0.5 0.1088317009011999 0  -0.5 0.09167500000001694 0  -0.5 0.08335000000003931 0  -0.5 0.07502500000006167 0  -0.5 0.06670000000008947 0  -0.5 0.05837500000011001 0  -0.5 0.0500500000001328 0  -0.5 0.0417250000001127 0  -0.5 0.03340000000008944 0  -0.5 0.02507500000006573 0  -0.5 0.01675000000004653 0  -0.5 0.008425000000027341 
[...]
<PointData  Vectors="f_20"> 
<DataArray  type="Float64"  Name="f_20"  NumberOfComponents="3" format="ascii">-4.8537409586224264e-06 4.9109316838878661e-05 0.0000000000000000e+00  0.0000000000000000e+00 0.0000000000000000e+00 0.0000000000000000e+00  0.0000000000000000e+00 0.0000000000000000e+00 0.0000000000000000e+00  -3.7796001454772597e-05 3.9071589237770683e-05 0.0000000000000000e+00  1.1644422790294845e-04 7.3500000000000006e-03 0.0000000000000000e+00  1.2083945553021746e-04 7.3500000000000006e-03 0.0000000000000000e+00  1.1859541510750107e-04 7.3507928631867288e-03 0.0000000000000000e+00  -9.8749868396270595e-07 -4.9914141698842160e-07 0.0000000000000000e+00  1.1336002593502004e-04 7.3398343002112152e-03 0.0000000000000000e+00  -6.0031273355053542e-06 9.9730090096828882e-06 0.0000000000000000e+00  -6.0086912798072933e-07 -4.9488702720620241e-07 0.0000000000000000e+00  1.1918672767597664e-04 7.3507898644662112e-03 0.0000000000000000e+00  0.0000000000000000e+00 0.0000000000000000e+00 0.0000000000000000e+00  0.0000000000000000e+00 0.0000000000000000e+00 0.0000000000000000e+00  0.0000000000000000e+00 0.0000000000000000e+00 0.0000000000000000e+00  0.0000000000000000e+00 0.0000000000000000e+00 0.0000000000000000e+00  0.0000000000000000e+00 0.0000000000000000e+00 0.0000000000000000e+00  0.0000000000000000e+00 0.0000000000000000e+00 0.0000000000000000e+00  0.0000000000000000e+00 0.0000000000000000e+00 0.0000000000000000e+00  0.0000000000000000e+00 0.0000000000000000e+00 0.0000000000000000e+00  0.0000000000000000e+00 0.0000000000000000e+00 0.0000000000000000e+00  0.0000000000000000e+00 0.0000000000000000e+00 0.0000000000000000e+00  0.0000000000000000e+00 0.0000000000000000e+00 0.0000000000000000e+00  0.0000000000000000e+00 0.0000000000000000e+00 0.0000000000000000e+00  0.0000000000000000e+00 0.0000000000000000e+00 0.0000000000000000e+00  0.0000000000000000e+00 0.0000000000000000e+00 0.0000000000000000e+00  0.0000000000000000e+00 0.0000000000000000e+00 0.0000000000000000e+00  0.0000000000000000e+00 0.0000000000000000e+00 0.0000000000000000e+00  0.0000000000000000e+00 0.0000000000000000e+00 0.0000000000000000e+00  0.0000000000000000e+00 0.0000000000000000e+00 0.0000000000000000e+00  0.0000000000000000e+00 0.0000000000000000e+00 0.0000000000000000e+00  0.0000000000000000e+00 0.0000000000000000e+00 0.0000000000000000e+00  0.0000000000000000e+00 0.0000000000000000e+00 0.0000000000000000e+00  0.0000000000000000e+00 0.0000000000000000e+00 0.0000000000000000e+00  0.0000000000000000e+00 0.0000000000000000e+00 0.0000000000000000e+00  0.0000000000000000e+00 0.0000000000000000e+00 0.0000000000000000e+00  0.0000000000000000e+00 0.0000000000000000e+00 0.0000000000000000e+00  0.0000000000000000e+00 0.0000000000000000e+00 0.0000000000000000e+00  0.0000000000000000e+00 0.0000000000000000e+00 0.0000000000000000e+00  0.0000000000000000e+00 0.0000000000000000e+00 0.0000000000000000e+00  0.0000000000000000e+00 0.0000000000000000e+00 0.0000000000000000e+00  0.0000000000000000e+00 0.0000000000000000e+00 0.0000000000000000e+00  0.0000000000000000e+00 0.0000000000000000e+00 0.0000000000000000e+00  0.0000000000000000e+00 0.0000000000000000e+00 0.0000000000000000e+00  0.0000000000000000e+00 0.0000000000000000e+00 0.0000000000000000e+00  0.0000000000000000e+00 0.0000000000000000e+00 0.0000000000000000e+00  0.0000000000000000e+00 0.0000000000000000e+00 0.0000000000000000e+00  0.0000000000000000e+00 0.0000000000000000e+00 0.0000000000000000e+00  0.0000000000000000e+00 0.0000000000000000e+00 0.0000000000000000e+00  0.0000000000000000e+00 0.0000000000000000e+00 0.0000000000000000e+00  0.0000000000000000e+00 0.0000000000000000e+00 0.0000000000000000e+00  0.0000000000000000e+00 0.0000000000000000e+00 0.0000000000000000e+00  0.0000000000000000e+00 0.0000000000000000e+00 0.0000000000000000e+00  0.0000000000000000e+00 0.0000000000000000e+00 0.0000000000000000e+00  0.0000000000000000e+00 0.0000000000000000e+00 0.0000000000000000e+00  0.0000000000000000e+00 0.0000000000000000e+00 0.0000000000000000e+00  0.0000000000000000e+00 0.0000000000000000e+00 0.0000000000000000e+00  0.0000000000000000e+00 0.0000000000000000e+00 0.0000000000000000e+00  0.0000000000000000e+00 0.0000000000000000e+00 0.0000000000000000e+00  0.0000000000000000e+00 0.0000000000000000e+00 0.0000000000000000e+00  0.0000000000000000e+00 0.0000000000000000e+00 0.0000000000000000e+00  0.0000000000000000e+00 0.0000000000000000e+00 0.0000000000000000e+00  0.0000000000000000e+00 0.0000000000000000e+00 0.0000000000000000e+00  0.0000000000000000e+00 0.0000000000000000e+00 0.0000000000000000e+00  0.0000000000000000e+00 0.0000000000000000e+00 0.0000000000000000e+00  0.0000000000000000e+00 0.0000000000000000e+00 0.0000000000000000e+00  0.0000000000000000e+00 0.0000000000000000e+00 0.0000000000000000e+00  0.0000000000000000e+00 0.0000000000000000e+00 0.0000000000000000e+00  0.0000000000000000e+00 0.0000000000000000e+00 0.0000000000000000e+00  0.0000000000000000e+00 0.0000000000000000e+00 0.0000000000000000e+00  0.0000000000000000e+00 0.0000000000000000e+00 0.0000000000000000e+00  0.0000000000000000e+00 0.0000000000000000e+00 0.0000000000000000e+00  0.0000000000000000e+00 0.0000000000000000e+00 0.0000000000000000e+00  0.0000000000000000e+00 0.0000000000000000e+00 0.0000000000000000e+00  0.0000000000000000e+00 0.0000000000000000e+00 0.0000000000000000e+00  0.0000000000000000e+00 0.0000000000000000e+00 0.0000000000000000e+00  0.0000000000000000e+00 0.0000000000000000e+00 0.0000000000000000e+00  0.0000000000000000e+00 0.0000000000000000e+00 0.0000000000000000e+00  0.0000000000000000e+00 0.0000000000000000e+00 0.0000000000000000e+00  0.0000000000000000e+00 0.0000000000000000e+00 0.0000000000000000e+00  0.0000000000000000e+00 0.0000000000000000e+00 0.0000000000000000e+00  0.0000000000000000e+00 0.0000000000000000e+00 0.0000000000000000e+00  0.0000000000000000e+00 0.0000000000000000e+00 0.0000000000000000e+00  0.0000000000000000e+00 0.0000000000000000e+00 0.0000000000000000e+00  0.0000000000000000e+00 0.0000000000000000e+00 0.0000000000000000e+00  0.0000000000000000e+00 0.0000000000000000e+00 0.0000000000000000e+00  0.0000000000000000e+00 0.0000000000000000e+00 0.0000000000000000e+00  0.0000000000000000e+00 0.0000000000000000e+00 0.0000000000000000e+00  0.0000000000000000e+00 0.0000000000000000e+00 0.0000000000000000e+00  0.0000000000000000e+00 0.0000000000000000e+00 0.0000000000000000e+00  0.0000000000000000e+00 0.0000000000000000e+00 0.0000000000000000e+00  0.0000000000000000e+00 0.0000000000000000e+00 0.0000000000000000e+00  0.0000000000000000e+00 0.0000000000000000e+00 0.0000000000000000e+00  0.0000000000000000e+00 0.0000000000000000e+00 0.0000000000000000e+00  0.0000000000000000e+00 0.0000000000000000e+00 0.0000000000000000e+00  0.0000000000000000e+00 0.0000000000000000e+00 0.0000000000000000e+00  0.0000000000000000e+00 0.0000000000000000e+00 0.0000000000000000e+00  0.0000000000000000e+00 0.0000000000000000e+00 0.0000000000000000e+00  0.0000000000000000e+00 0.0000000000000000e+00 0.0000000000000000e+00  0.0000000000000000e+00 0.0000000000000000e+00 0.0000000000000000e+00  0.0000000000000000e+00 0.0000000000000000e+00 0.0000000000000000e+00  0.0000000000000000e+00 0.0000000000000000e+00 0.0000000000000000e+00  0.0000000000000000e+00 0.0000000000000000e+00 0.0000000000000000e+00  0.0000000000000000e+00 0.0000000000000000e+00 0.0000000000000000e+00  0.0000000000000000e+00 0.0000000000000000e+00 0.0000000000000000e+00  0.0000000000000000e+00 0.0000000000000000e+00 0.0000000000000000e+00  0.0000000000000000e+00 0.0000000000000000e+00 0.0000000000000000e+00  0.0000000000000000e+00 0.0000000000000000e+00 0.0000000000000000e+00  0.0000000000000000e+00 0.0000000000000000e+00 0.0000000000000000e+00  0.0000000000000000e+00 0.0000000000000000e+00 0.0000000000000000e+00  0.0000000000000000e+00 0.0000000000000000e+00 0.0000000000000000e+00  -4.4075638319689794e-07 4.6291593270811661e-07 0.0000000000000000e+00  -7.2370982321113207e-07 8.0140398348382597e-07 0.0000000000000000e+00  -9.5438839382709999e-07 1.0915369768881593e-06 0.0000000000000000e+00  -1.1556008630566719e-06 1.3566821774252244e-06 0.0000000000000000e+00  -1.3355473662413869e-06 1.6047777468324668e-06 0.0000000000000000e+00  -1.5000092293524194e-06 1.8421811492747419e-06 0.0000000000000000e+00  -1.6537805113009581e-06 2.0717039512769269e-06 0.0000000000000000e+00  -1.7952510140769264e-06 2.2964058555336976e-06 0.0000000000000000e+00  -1.9285541315740942e-06 2.5172182131639802e-06 0.0000000000000000e+00  -2.0563299707725374e-06 2.7341350169876440e-06 0.0000000000000000e+00  -2.1778343256571299e-06 2.9492671237809870e-06 0.0000000000000000e+00  -2.2950009205057879e-06 3.1617356137245601e-06 0.0000000000000000e+00  -2.4077286026832930e-06 3.3734307848524188e-06 0.0000000000000000e+00  -2.5177389952551807e-06 3.5830115216908570e-06 0.0000000000000000e+00  -2.6249467182468922e-06 3.7921123969414514e-06 0.0000000000000000e+00  -2.7303247762458844e-06 4.0000998737398925e-06 0.0000000000000000e+00  -2.8335543093414636e-06 4.2074059991487288e-06 0.0000000000000000e+00  -2.9355508872699351e-06 4.4141013425353433e-06 0.0000000000000000e+00  -3.0365613687958441e-06 4.6205564020604776e-06 0.0000000000000000e+00  -3.1367655243575534e-06 4.8266659666092237e-06 0.0000000000000000e+00  -3.2365456950059077e-06 5.0326900894161363e-06 0.0000000000000000e+00  -3.3361583277778109e-06 5.2386565725907775e-06 0.0000000000000000e+00  -3.4358907636064634e-06 5.4447355911571930e-06 0.0000000000000000e+00  -3.5360008196501869e-06 5.6509425200929708e-06 0.0000000000000000e+00  -3.6367005405058677e-06 5.8575537329487759e-06 0.0000000000000000e+00  -3.7383253451139499e-06 6.0647263734691923e-06 0.0000000000000000e+00  -3.8410882952344045e-06 6.2728310529633432e-06 0.0000000000000000e+00  -3.9445245499917495e-06 6.4810437476024656e-06 0.0000000000000000e+00  -4.0502250438608888e-06 6.6906233877964559e-06 0.0000000000000000e+00  -4.1580064426783930e-06 6.9014813608708236e-06 0.0000000000000000e+00  -4.2680994047265398e-06 7.1133384358574421e-06 0.0000000000000000e+00  -4.3805013895832166e-06 7.3273660296118973e-06 0.0000000000000000e+00  -4.4966004520146780e-06 7.5434135651274213e-06 0.0000000000000000e+00  -4.6159370252401729e-06 7.7626069909181144e-06 0.0000000000000000e+00  -4.7391282863064408e-06 7.9836261964769615e-06 0.0000000000000000e+00  -4.8683835596860561e-06 8.2085448998754261e-06 0.0000000000000000e+00  -5.0029898091500832e-06 8.4375159752275123e-06 0.0000000000000000e+00  -5.1435311573502865e-06 8.6733627252342868e-06 0.0000000000000000e+00  -5.2933399098607155e-06 8.9135057040699596e-06 0.0000000000000000e+00  -5.4510791825871491e-06 9.1619250351015717e-06 0.0000000000000000e+00  -5.6215004538309589e-06 9.4191379767823695e-06 0.0000000000000000e+00  -5.8048580708797028e-06 9.6907333639772391e-06 0.0000000000000000e+00  -6.2139325511921290e-06 1.0260822042846388e-05 0.0000000000000000e+00  -6.4467070800280612e-06 1.0575023097144702e-05 0.0000000000000000e+00  -6.7105698084835774e-06 1.0910679603134965e-05 0.0000000000000000e+00  -7.0171461708974497e-06 1.1301244478836185e-05 0.0000000000000000e+00  -7.3657175342885679e-06 1.1728284017141713e-05 0.0000000000000000e+00  -7.8095275079215628e-06 1.2231110148225393e-05 0.0000000000000000e+00  -8.3618709800303624e-06 1.2906708501032677e-05 0.0000000000000000e+00  -9.1339955467417043e-06 1.3772477798187704e-05 0.0000000000000000e+00  -1.0267311737899517e-05 1.4952453202307043e-05 0.0000000000000000e+00  -1.2195815883950064e-05 1.7012928887120981e-05 0.0000000000000000e+00  -1.7303600488222142e-05 2.1896678178514270e-05 0.0000000000000000e+00  5.6688291409328780e-05 7.2915152380772039e-03 0.0000000000000000e+00  1.0133235354038639e-04 7.3264059160497467e-03 0.0000000000000000e+00  1.0675424527253731e-04 7.3321909896318423e-03 0.0000000000000000e+00  1.0913097561986646e-04 7.3347845737827214e-03 0.0000000000000000e+00  1.1036793604611563e-04 7.3361627752309769e-03 0.0000000000000000e+00  1.1115651029907856e-04 7.3370443009598846e-03 0.0000000000000000e+00  1.1173217390116099e-04 7.3377560674951084e-03 0.0000000000000000e+00  1.1218728742950992e-04 7.3383017902040821e-03 0.0000000000000000e+00  1.1255753896430442e-04 7.3387566711634851e-03 0.0000000000000000e+00  1.1285605850177240e-04 7.3391453583781120e-03 0.0000000000000000e+00  1.1312643748810371e-04 7.3395088636132554e-03 0.0000000000000000e+00  1.1357466873996918e-04 7.3401481791503780e-03 0.0000000000000000e+00  1.1376930807644160e-04 7.3404482799102324e-03 0.0000000000000000e+00  1.1394639242047670e-04 7.3407298180221871e-03 0.0000000000000000e+00  1.1410669469103749e-04 7.3410000586890366e-03 0.0000000000000000e+00  1.1425609142744310e-04 7.3412601625812328e-03 0.0000000000000000e+00  1.1439335287955389e-04 7.3415153239702307e-03 0.0000000000000000e+00  1.1452216281719622e-04 7.3417621545715005e-03 0.0000000000000000e+00  1.1464363629956139e-04 7.3420043458955059e-03 0.0000000000000000e+00  1.1475639221506136e-04 7.3422420134428091e-03 0.0000000000000000e+00  1.1486365680525447e-04 7.3424780188780809e-03 0.0000000000000000e+00  1.1496562019426264e-04 7.3427104576537497e-03 0.0000000000000000e+00  1.1506192613401505e-04 7.3429408947965277e-03 0.0000000000000000e+00  1.1515401411859238e-04 7.3431689252877195e-03 0.0000000000000000e+00  1.1524185163184533e-04 7.3433963817299787e-03 0.0000000000000000e+00  1.1532566015116817e-04 7.3436227132693717e-03 0.0000000000000000e+00  1.1540462687495896e-04 7.3438474236222585e-03 0.0000000000000000e+00  1.1548135925545756e-04 7.3440728484426262e-03 0.0000000000000000e+00  1.1555453994828805e-04 7.3442973234081671e-03 0.0000000000000000e+00  1.1562433340678635e-04 7.3445213480511961e-03 0.0000000000000000e+00  1.1569103403902296e-04 7.3447450390341290e-03 0.0000000000000000e+00  1.1575471080757097e-04 7.3449689846427167e-03 0.0000000000000000e+00  1.1581572175879536e-04 7.3451930750321965e-03 0.0000000000000000e+00  1.1587342796867971e-04 7.3454173187157508e-03 0.0000000000000000e+00  1.1592865866105581e-04 7.3456421800766345e-03 0.0000000000000000e+00  1.1598036192362098e-04 7.3458665283687719e-03 0.0000000000000000e+00  1.1603001942976323e-04 7.3460921349283717e-03 0.0000000000000000e+00  1.1607685000659701e-04 7.3463178638656680e-03 0.0000000000000000e+00  1.1612042748365769e-04 7.3465438516188307e-03 0.0000000000000000e+00  1.1616161932155080e-04 7.3467700122863159e-03 0.0000000000000000e+00  1.1620010704668816e-04 7.3469974473957915e-03 0.0000000000000000e+00  1.1623573943247867e-04 7.3472244954123859e-03 0.0000000000000000e+00  1.1626868815506114e-04 7.3474528183926366e-03 0.0000000000000000e+00  1.1629875329341621e-04 7.3476813728730033e-03 0.0000000000000000e+00  1.1632599555330023e-04 7.3479110890574233e-03 0.0000000000000000e+00  1.1635060768001932e-04 7.3481407051810476e-03 0.0000000000000000e+00  1.1637234536062773e-04 7.3483708983781539e-03 0.0000000000000000e+00  1.1639110902816171e-04 7.3486020128067696e-03 0.0000000000000000e+00  1.1640717131223839e-04 7.3488334261641360e-03 0.0000000000000000e+00  1.1642028687195323e-04 7.3490655731253485e-03 0.0000000000000000e+00  1.1643075417005374e-04 7.3492983928395523e-03 0.0000000000000000e+00  1.1643737136929528e-04 7.3495317957839972e-03 0.0000000000000000e+00  1.1644224947958478e-04 7.3497655906350993e-03 0.0000000000000000e+00  1.1654562939369897e-04 7.3500000000000015e-03 0.0000000000000000e+00  1.1664644480878530e-04 7.3500000000000006e-03 0.0000000000000000e+00  1.1674574656299638e-04 7.3500000000000006e-03 0.0000000000000000e+00  1.1684383396584360e-04 7.3500000000000006e-03 0.0000000000000000e+00  1.1694099850010320e-04 7.3500000000000006e-03 0.0000000000000000e+00  1.1703612255090892e-04 7.3500000000000006e-03 0.0000000000000000e+00  1.1713047392758177e-04 7.3500000000000006e-03 0.0000000000000000e+00  1.1722373881475101e-04 7.3500000000000015e-03 0.0000000000000000e+00  1.1731604660117055e-04 7.3500000000000006e-03 0.0000000000000000e+00  1.1740640461357427e-04 7.3500000000000015e-03 0.0000000000000000e+00  1.1749624023598248e-04 7.3499999999999998e-03 0.0000000000000000e+00  1.1758492782090265e-04 7.3500000000000006e-03 0.0000000000000000e+00  1.1767254114997510e-04 7.3499999999999998e-03 0.0000000000000000e+00  1.1775894423470279e-04 7.3500000000000006e-03 0.0000000000000000e+00  1.1784431916039572e-04 7.3500000000000006e-03 0.0000000000000000e+00  1.1792911398950633e-04 7.3500000000000015e-03 0.0000000000000000e+00  1.1801304368429976e-04 7.3500000000000006e-03 0.0000000000000000e+00  1.1809594232439987e-04 7.3500000000000006e-03 0.0000000000000000e+00  1.1817794670301283e-04 7.3500000000000006e-03 0.0000000000000000e+00  1.1825925402294474e-04 7.3500000000000006e-03 0.0000000000000000e+00  1.1833975987440676e-04 7.3499999999999998e-03 0.0000000000000000e+00  1.1841954969854609e-04 7.3500000000000006e-03 0.0000000000000000e+00  1.1849863508848509e-04 7.3499999999999998e-03 0.0000000000000000e+00  1.1857694052936810e-04 7.3500000000000006e-03 0.0000000000000000e+00  1.1865472077414801e-04 7.3500000000000006e-03 0.0000000000000000e+00  1.1873174966859974e-04 7.3500000000000006e-03 0.0000000000000000e+00  1.1880801564247319e-04 7.3500000000000006e-03 0.0000000000000000e+00  1.1888373343524089e-04 7.3500000000000015e-03 0.0000000000000000e+00  1.1895843857235983e-04 7.3500000000000015e-03 0.0000000000000000e+00  1.1903245667991666e-04 7.3499999999999998e-03 0.0000000000000000e+00  1.1910580238427188e-04 7.3500000000000006e-03 0.0000000000000000e+00  1.1917821683277927e-04 7.3500000000000006e-03 0.0000000000000000e+00  1.1924987082539180e-04 7.3500000000000006e-03 0.0000000000000000e+00  1.1932094674287499e-04 7.3500000000000006e-03 0.0000000000000000e+00  1.1939050488993840e-04 7.3500000000000006e-03 0.0000000000000000e+00  1.1945937964506239e-04 7.3500000000000015e-03 0.0000000000000000e+00  1.1952721299592325e-04 7.3500000000000006e-03 0.0000000000000000e+00  1.1959391590786861e-04 7.3500000000000006e-03 0.0000000000000000e+00  1.1965980594708164e-04 7.3500000000000006e-03 0.0000000000000000e+00  1.1972412486025193e-04 7.3500000000000006e-03 0.0000000000000000e+00  1.1978708635291626e-04 7.3500000000000006e-03 0.0000000000000000e+00  1.1984858112875945e-04 7.3500000000000015e-03 0.0000000000000000e+00  1.1990890894440502e-04 7.3500000000000015e-03 0.0000000000000000e+00  1.1996798314538601e-04 7.3500000000000006e-03 0.0000000000000000e+00  1.2002504228421412e-04 7.3500000000000006e-03 0.0000000000000000e+00  1.2008093576587748e-04 7.3500000000000006e-03 0.0000000000000000e+00  1.2013526223190476e-04 7.3500000000000006e-03 0.0000000000000000e+00  1.2018714126271189e-04 7.3500000000000006e-03 0.0000000000000000e+00  1.2023764424124981e-04 7.3500000000000006e-03 0.0000000000000000e+00  1.2028671426286076e-04 7.3500000000000006e-03 0.0000000000000000e+00  1.2033381725959079e-04 7.3500000000000015e-03 0.0000000000000000e+00  1.2037873422686976e-04 7.3500000000000006e-03 0.0000000000000000e+00  1.2042182158119327e-04 7.3500000000000006e-03 0.0000000000000000e+00  1.2046333152362435e-04 7.3500000000000006e-03 0.0000000000000000e+00  1.2050261361006183e-04 7.3500000000000006e-03 0.0000000000000000e+00  1.2053994592267106e-04 7.3500000000000006e-03 0.0000000000000000e+00  1.2057551091904710e-04 7.3500000000000006e-03 0.0000000000000000e+00  1.2060937461692890e-04 7.3500000000000006e-03 0.0000000000000000e+00  1.2064073997485638e-04 7.3500000000000006e-03 0.0000000000000000e+00  1.2067063901018707e-04 7.3499999999999998e-03 0.0000000000000000e+00  1.2069854467514944e-04 7.3500000000000006e-03 0.0000000000000000e+00  1.2072461040939160e-04 7.3500000000000006e-03 0.0000000000000000e+00  1.2074866996248710e-04 7.3500000000000015e-03 0.0000000000000000e+00  1.2077135314048571e-04 7.3500000000000006e-03 0.0000000000000000e+00  1.2079243800860259e-04 7.3500000000000006e-03 0.0000000000000000e+00  1.2081178030992729e-04 7.3499999999999998e-03 0.0000000000000000e+00  1.2082935818158044e-04