<?xml version="1.0"?>
<VTKFile type="UnstructuredGrid"  version="0.1"  >
<UnstructuredGrid>
<Piece  NumberOfPoints="15540" NumberOfCells="30546">
<Points>
<DataArray  type="Float64"  NumberOfComponents="3"  format="ascii">0 0 0  -0.5 -0.5 0  0.5 -0.5 0  0.5 0 0  0.5 0.5 0  -0.5 0.5 0  -0.5 0.0001 0  -0.5 -0.0001 0  0.5 0.1 0  0.5 -0.1 0  -0.5 -0.1 0  -0.5 0.1 0  -0.4900000000000277 -0.5 0  -0.4800000000000555 -0.5 0  -0.4700000000000832 -0.5 0  -0.4600000000001109 -0.5 0  -0.4500000000001387 -0.5 0  -0.4400000000001664 -0.5 0  -0.4300000000001942 -0.5 0  -0.4200000000002219 -0.5 0  -0.4100000000002497 -0.5 0  -0.4000000000002774 -0.5 0  -0.3900000000003052 -0.5 0  -0.3800000000003328 -0.5 0  -0.3700000000003606 -0.5 0  -0.3600000000003883 -0.5 0  -0.3500000000004161 -0.5 0  -0.3400000000004438 -0.5 0  -0.3300000000004716 -0.5 0  -0.3200000000004993 -0.5 0  -0.3100000000005271 -0.5 0  -0.3000000000005548 -0.5 0  -0.2900000000005825 -0.5 0  -0.2800000000006103 -0.5 0  -0.2700000000006381 -0.5 0  -0.2600000000006658 -0.5 0  -0.2500000000006935 -0.5 0  -0.2400000000007212 -0.5 0  -0.230000000000749 -0.5 0  -0.2200000000007767 -0.5 0  -0.2100000000008044 -0.5 0  -0.2000000000008322 -0.5 0  -0.19000000000086 -0.5 0  -0.1800000000008877 -0.5 0  -0.1700000000009154 -0.5 0  -0.1600000000009431 -0.5 0  -0.1500000000009709 -0.5 0  -0.1400000000009986 -0.5 0  -0.1300000000010264 -0.5 0  -0.1200000000010541 -0.5 0  -0.1100000000010818 -0.5 0  -0.1000000000011096 -0.5 0  -0.09000000000113734 -0.5 0  -0.08000000000116503 -0.5 0  -0.07000000000119283 -0.5 0  -0.06000000000122058 -0.5 0  -0.05000000000124827 -0.5 0  -0.04000000000127607 -0.5 0  -0.03000000000130376 -0.5 0  -0.02000000000133151 -0.5 0  -0.01000000000135925 -0.5 0  -1.376121439022882e-12 -0.5 0  0.009999999998640763 -0.5 0  0.01999999999866864 -0.5 0  0.02999999999869629 -0.5 0  0.03999999999872406 -0.5 0  0.04999999999875182 -0.5 0  0.05999999999877947 -0.5 0  0.06999999999880724 -0.5 0  0.079999999998835 -0.5 0  0.08999999999886266 -0.5 0  0.09999999999889042 -0.5 0  0.1099999999989182 -0.5 0  0.1199999999989459 -0.5 0  0.1299999999989737 -0.5 0  0.1399999999990014 -0.5 0  0.1499999999990291 -0.5 0  0.1599999999990568 -0.5 0  0.1699999999990847 -0.5 0  0.1799999999991124 -0.5 0  0.1899999999991401 -0.5 0  0.1999999999991678 -0.5 0  0.2099999999991955 -0.5 0  0.2199999999992234 -0.5 0  0.2299999999992511 -0.5 0  0.2399999999992788 -0.5 0  0.2499999999993066 -0.5 0  0.2599999999993342 -0.5 0  0.269999999999362 -0.5 0  0.2799999999993897 -0.5 0  0.2899999999994175 -0.5 0  0.2999999999994452 -0.5 0  0.3099999999994729 -0.5 0  0.3199999999995007 -0.5 0  0.3299999999995284 -0.5 0  0.3399999999995562 -0.5 0  0.3499999999995839 -0.5 0  0.3599999999996116 -0.5 0  0.3699999999996393 -0.5 0  0.379999999999667 -0.5 0  0.3899999999996949 -0.5 0  0.3999999999997226 -0.5 0  0.4099999999997503 -0.5 0  0.419999999999778 -0.5 0  0.4299999999998058 -0.5 0  0.4399999999998336 -0.5 0  0.4499999999998613 -0.5 0  0.4599999999998891 -0.5 0  0.4699999999999167 -0.5 0  0.4799999999999445 -0.5 0  0.4899999999999722 -0.5 0  0.5 -0.4902110204681464 0  0.5 -0.4804459958734807 0  0.5 -0.4707048677450883 0  0.5 -0.4609875815766065 0  0.5 -0.4512940759251849 0  0.5 -0.4416242912883993 0  0.5 -0.4319781678689807 0  0.5 -0.4223556545383647 0  0.5 -0.4127566896324213 0  0.5 -0.4031812128200121 0  0.5 -0.3936291733057916 0  0.5 -0.3841005081172659 0  0.5 -0.3745951585781932 0  0.5 -0.3651130778999337 0  0.5 -0.3556541993788045 0  0.5 -0.3462184677228392 0  0.5 -0.3368058273705318 0  0.5 -0.3274162224888609 0  0.5 -0.3180495969712945 0  0.5 -0.3087058944357755 0  0.5 -0.299385058222682 0  0.5 -0.2900870313927414 0  0.5 -0.2808117567250807 0  0.5 -0.2715591844628491 0  0.5 -0.2623292564012653 0  0.5 -0.253121909553727 0  0.5 -0.2439371050851549 0  0.5 -0.2347747685524501 0  0.5 -0.2256348634421331 0  0.5 -0.2165173209784076 0  0.5 -0.207422087829958 0  0.5 -0.1983491207029381 0  0.5 -0.1892983550950482 0  0.5 -0.1802697378305253 0  0.5 -0.1712632154965152 0  0.5 -0.1622787344187354 0  0.5 -0.1533162406595534 0  0.5 -0.1443756800160514 0  0.5 -0.1354569980180493 0  0.5 -0.1265601399261414 0  0.5 -0.1176850622761093 0  0.5 -0.1088317009011999 0  0.5 -0.09166666666668973 0  0.5 -0.08333333333337943 0  0.5 -0.07500000000006915 0  0.5 -0.06666666666675886 0  0.5 -0.05833333333344858 0  0.5 -0.05000000000013693 0  0.5 -0.04166666666678191 0  0.5 -0.03333333333342643 0  0.5 -0.02500000000006916 0  0.5 -0.01666666666671188 0  0.5 -0.00833333333335548 0  0.5 0.008333333333318314 0  0.5 0.01666666666663358 0  0.5 0.02499999999994162 0  0.5 0.03333333333325101 0  0.5 0.04166666666655769 0  0.5 0.04999999999986843 0  0.5 0.05833333333322258 0  0.5 0.06666666666657715 0  0.5 0.07499999999993352 0  0.5 0.08333333333328992 0  0.5 0.09166666666664541 0  0.5 0.1088317009011616 0  0.5 0.1176850622760307 0  0.5 0.1265601399260203 0  0.5 0.1354569980178909 0  0.5 0.1443756800158549 0  0.5 0.153316240659315 0  0.5 0.1622787344184454 0  0.5 0.1712632154961752 0  0.5 0.1802697378301332 0  0.5 0.1892983550946039 0  0.5 0.1983491207024433 0  0.5 0.2074220878294123 0  0.5 0.216517320977811 0  0.5 0.2256348634414833 0  0.5 0.2347747685517479 0  0.5 0.2439371050844009 0  0.5 0.2531219095529224 0  0.5 0.2623292564004089 0  0.5 0.2715591844619371 0  0.5 0.2808117567241139 0  0.5 0.290087031391723 0  0.5 0.2993850582216101 0  0.5 0.3087058944347426 0  0.5 0.3180495969703129 0  0.5 0.3274162224879299 0  0.5 0.3368058273696494 0  0.5 0.3462184677220051 0  0.5 0.3556541993780186 0  0.5 0.3651130778991989 0  0.5 0.3745951585775107 0  0.5 0.3841005081166359 0  0.5 0.3936291733052134 0  0.5 0.4031812128194852 0  0.5 0.412756689631945 0  0.5 0.4223556545379392 0  0.5 0.431978167868607 0  0.5 0.4416242912880781 0  0.5 0.4512940759249164 0  0.5 0.4609875815763912 0  0.5 0.4707048677449264 0  0.5 0.4804459958733726 0  0.5 0.4902110204680924 0  0.4900000000000277 0.5 0  0.4800000000000555 0.5 0  0.4700000000000832 0.5 0  0.4600000000001109 0.5 0  0.4500000000001387 0.5 0  0.4400000000001664 0.5 0  0.4300000000001942 0.5 0  0.4200000000002219 0.5 0  0.4100000000002497 0.5 0  0.4000000000002774 0.5 0  0.3900000000003052 0.5 0  0.3800000000003328 0.5 0  0.3700000000003606 0.5 0  0.3600000000003883 0.5 0  0.3500000000004161 0.5 0  0.3400000000004438 0.5 0  0.3300000000004716 0.5 0  0.3200000000004993 0.5 0  0.3100000000005271 0.5 0  0.3000000000005548 0.5 0  0.2900000000005825 0.5 0  0.2800000000006103 0.5 0  0.2700000000006381 0.5 0  0.2600000000006658 0.5 0  0.2500000000006935 0.5 0  0.2400000000007212 0.5 0  0.230000000000749 0.5 0  0.2200000000007767 0.5 0  0.2100000000008044 0.5 0  0.2000000000008322 0.5 0  0.19000000000086 0.5 0  0.1800000000008877 0.5 0  0.1700000000009154 0.5 0  0.1600000000009431 0.5 0  0.1500000000009709 0.5 0  0.1400000000009986 0.5 0  0.1300000000010264 0.5 0  0.1200000000010541 0.5 0  0.1100000000010818 0.5 0  0.1000000000011096 0.5 0  0.09000000000113734 0.5 0  0.08000000000116503 0.5 0  0.07000000000119283 0.5 0  0.06000000000122058 0.5 0  0.05000000000124827 0.5 0  0.04000000000127607 0.5 0  0.03000000000130376 0.5 0  0.02000000000133151 0.5 0  0.01000000000135925 0.5 0  1.376121439022882e-12 0.5 0  -0.009999999998640763 0.5 0  -0.01999999999866864 0.5 0  -0.02999999999869629 0.5 0  -0.03999999999872406 0.5 0  -0.04999999999875182 0.5 0  -0.05999999999877947 0.5 0  -0.06999999999880724 0.5 0  -0.079999999998835 0.5 0  -0.08999999999886266 0.5 0  -0.09999999999889042 0.5 0  -0.1099999999989182 0.5 0  -0.1199999999989459 0.5 0  -0.1299999999989737 0.5 0  -0.1399999999990014 0.5 0  -0.1499999999990291 0.5 0  -0.1599999999990568 0.5 0  -0.1699999999990847 0.5 0  -0.1799999999991124 0.5 0  -0.1899999999991401 0.5 0  -0.1999999999991678 0.5 0  -0.2099999999991955 0.5 0  -0.2199999999992234 0.5 0  -0.2299999999992511 0.5 0  -0.2399999999992788 0.5 0  -0.2499999999993066 0.5 0  -0.2599999999993342 0.5 0  -0.269999999999362 0.5 0  -0.2799999999993897 0.5 0  -0.2899999999994175 0.5 0  -0.2999999999994452 0.5 0  -0.3099999999994729 0.5 0  -0.3199999999995007 0.5 0  -0.3299999999995284 0.5 0  -0.3399999999995562 0.5 0  -0.3499999999995839 0.5 0  -0.3599999999996116 0.5 0  -0.3699999999996393 0.5 0  -0.379999999999667 0.5 0  -0.3899999999996949 0.5 0  -0.3999999999997226 0.5 0  -0.4099999999997503 0.5 0  -0.419999999999778 0.5 0  -0.4299999999998058 0.5 0  -0.4399999999998336 0.5 0  -0.4499999999998613 0.5 0  -0.4599999999998891 0.5 0  -0.4699999999999167 0.5 0  -0.4799999999999445 0.5 0  -0.4899999999999722 0.5 0  -0.5 0.4902110204681464 0  -0.5 0.4804459958734807 0  -0.5 0.4707048677450883 0  -0.5 0.4609875815766065 0  -0.5 0.4512940759251849 0  -0.5 0.4416242912883993 0  -0.5 0.4319781678689807 0  -0.5 0.4223556545383647 0  -0.5 0.4127566896324213 0  -0.5 0.4031812128200121 0  -0.5 0.3936291733057916 0  -0.5 0.3841005081172659 0  -0.5 0.3745951585781932 0  -0.5 0.3651130778999337 0  -0.5 0.3556541993788045 0  -0.5 0.3462184677228392 0  -0.5 0.3368058273705318 0  -0.5 0.3274162224888609 0  -0.5 0.3180495969712945 0  -0.5 0.3087058944357755 0  -0.5 0.299385058222682 0  -0.5 0.2900870313927414 0  -0.5 0.2808117567250807 0  -0.5 0.2715591844628491 0  -0.5 0.2623292564012653 0  -0.5 0.253121909553727 0  -0.5 0.2439371050851549 0  -0.5 0.2347747685524501 0  -0.5 0.2256348634421331 0  -0.5 0.2165173209784076 0  -0.5 0.207422087829958 0  -0.5 0.1983491207029381 0  -0.5 0.1892983550950482 0  -0.5 0.1802697378305253 0  -0.5 0.1712632154965152 0  -0.5 0.1622787344187354 0  -0.5 0.1533162406595534 0  -0.5 0.1443756800160514 0  -0.5 0.1354569980180493 0  -0.5 0.1265601399261414 0  -0.5 0.1176850622761093 0  -0.5 0.1088317009011999 0  -0.5 0.09167500000001694 0  -0.5 0.08335000000003931 0  -0.5 0.07502500000006167 0  -0.5 0.06670000000008947 0  -0.5 0.05837500000011001 0  -0.5 0.0500500000001328 0  -0.5 0.0417250000001127 0  -0.5 0.03340000000008944 0  -0.5 0.02507500000006573 0  -0.5 0.01675000000004653 0  -0.5 0.008425000000027341 
[...]
<PointData  Vectors="f_20"> 
<DataArray  type="Float64"  Name="f_20"  NumberOfComponents="3" format="ascii">-4.0137163751129991e-04 1.3495013104987924e-03 0.0000000000000000e+00  0.0000000000000000e+00 0.0000000000000000e+00 0.0000000000000000e+00  0.0000000000000000e+00 0.0000000000000000e+00 0.0000000000000000e+00  -7.6669120973592254e-04 1.4053000485499652e-03 0.0000000000000000e+00  -5.5618403435642779e-04 2.8000000000000004e-03 0.0000000000000000e+00  1.8491429011398928e-04 2.8000000000000004e-03 0.0000000000000000e+00  -1.8965936928455330e-04 2.9367478996624214e-03 0.0000000000000000e+00  -1.4781873280918988e-04 -8.0332581448254916e-05 0.0000000000000000e+00  -7.5123340692046013e-04 1.6271097015469816e-03 0.0000000000000000e+00  -7.2551411546889683e-04 1.1885460726066143e-03 0.0000000000000000e+00  -8.7750432428598821e-05 -7.9669034177473269e-05 0.0000000000000000e+00  -9.2071487927538671e-05 2.9363133150530764e-03 0.0000000000000000e+00  0.0000000000000000e+00 0.0000000000000000e+00 0.0000000000000000e+00  0.0000000000000000e+00 0.0000000000000000e+00 0.0000000000000000e+00  0.0000000000000000e+00 0.0000000000000000e+00 0.0000000000000000e+00  0.0000000000000000e+00 0.0000000000000000e+00 0.0000000000000000e+00  0.0000000000000000e+00 0.0000000000000000e+00 0.0000000000000000e+00  0.0000000000000000e+00 0.0000000000000000e+00 0.0000000000000000e+00  0.0000000000000000e+00 0.0000000000000000e+00 0.0000000000000000e+00  0.0000000000000000e+00 0.0000000000000000e+00 0.0000000000000000e+00  0.0000000000000000e+00 0.0000000000000000e+00 0.0000000000000000e+00  0.0000000000000000e+00 0.0000000000000000e+00 0.0000000000000000e+00  0.0000000000000000e+00 0.0000000000000000e+00 0.0000000000000000e+00  0.0000000000000000e+00 0.0000000000000000e+00 0.0000000000000000e+00  0.0000000000000000e+00 0.0000000000000000e+00 0.0000000000000000e+00  0.0000000000000000e+00 0.0000000000000000e+00 0.0000000000000000e+00  0.0000000000000000e+00 0.0000000000000000e+00 0.0000000000000000e+00  0.0000000000000000e+00 0.0000000000000000e+00 0.0000000000000000e+00  0.0000000000000000e+00 0.0000000000000000e+00 0.0000000000000000e+00  0.0000000000000000e+00 0.0000000000000000e+00 0.0000000000000000e+00  0.0000000000000000e+00 0.0000000000000000e+00 0.0000000000000000e+00  0.0000000000000000e+00 0.0000000000000000e+00 0.0000000000000000e+00  0.0000000000000000e+00 0.0000000000000000e+00 0.0000000000000000e+00  0.0000000000000000e+00 0.0000000000000000e+00 0.0000000000000000e+00  0.0000000000000000e+00 0.0000000000000000e+00 0.0000000000000000e+00  0.0000000000000000e+00 0.0000000000000000e+00 0.0000000000000000e+00  0.0000000000000000e+00 0.0000000000000000e+00 0.0000000000000000e+00  0.0000000000000000e+00 0.0000000000000000e+00 0.0000000000000000e+00  0.0000000000000000e+00 0.0000000000000000e+00 0.0000000000000000e+00  0.0000000000000000e+00 0.0000000000000000e+00 0.0000000000000000e+00  0.0000000000000000e+00 0.0000000000000000e+00 0.0000000000000000e+00  0.0000000000000000e+00 0.0000000000000000e+00 0.0000000000000000e+00  0.0000000000000000e+00 0.0000000000000000e+00 0.0000000000000000e+00  0.0000000000000000e+00 0.0000000000000000e+00 0.0000000000000000e+00  0.0000000000000000e+00 0.0000000000000000e+00 0.0000000000000000e+00  0.0000000000000000e+00 0.0000000000000000e+00 0.0000000000000000e+00  0.0000000000000000e+00 0.0000000000000000e+00 0.0000000000000000e+00  0.0000000000000000e+00 0.0000000000000000e+00 0.0000000000000000e+00  0.0000000000000000e+00 0.0000000000000000e+00 0.0000000000000000e+00  0.0000000000000000e+00 0.0000000000000000e+00 0.0000000000000000e+00  0.0000000000000000e+00 0.0000000000000000e+00 0.0000000000000000e+00  0.0000000000000000e+00 0.0000000000000000e+00 0.0000000000000000e+00  0.0000000000000000e+00 0.0000000000000000e+00 0.0000000000000000e+00  0.0000000000000000e+00 0.0000000000000000e+00 0.0000000000000000e+00  0.0000000000000000e+00 0.0000000000000000e+00 0.0000000000000000e+00  0.0000000000000000e+00 0.0000000000000000e+00 0.0000000000000000e+00  0.0000000000000000e+00 0.0000000000000000e+00 0.0000000000000000e+00  0.0000000000000000e+00 0.0000000000000000e+00 0.0000000000000000e+00  0.0000000000000000e+00 0.0000000000000000e+00 0.0000000000000000e+00  0.0000000000000000e+00 0.0000000000000000e+00 0.0000000000000000e+00  0.0000000000000000e+00 0.0000000000000000e+00 0.0000000000000000e+00  0.0000000000000000e+00 0.0000000000000000e+00 0.0000000000000000e+00  0.0000000000000000e+00 0.0000000000000000e+00 0.0000000000000000e+00  0.0000000000000000e+00 0.0000000000000000e+00 0.0000000000000000e+00  0.0000000000000000e+00 0.0000000000000000e+00 0.0000000000000000e+00  0.0000000000000000e+00 0.0000000000000000e+00 0.0000000000000000e+00  0.0000000000000000e+00 0.0000000000000000e+00 0.0000000000000000e+00  0.0000000000000000e+00 0.0000000000000000e+00 0.0000000000000000e+00  0.0000000000000000e+00 0.0000000000000000e+00 0.0000000000000000e+00  0.0000000000000000e+00 0.0000000000000000e+00 0.0000000000000000e+00  0.0000000000000000e+00 0.0000000000000000e+00 0.0000000000000000e+00  0.0000000000000000e+00 0.0000000000000000e+00 0.0000000000000000e+00  0.0000000000000000e+00 0.0000000000000000e+00 0.0000000000000000e+00  0.0000000000000000e+00 0.0000000000000000e+00 0.0000000000000000e+00  0.0000000000000000e+00 0.0000000000000000e+00 0.0000000000000000e+00  0.0000000000000000e+00 0.0000000000000000e+00 0.0000000000000000e+00  0.0000000000000000e+00 0.0000000000000000e+00 0.0000000000000000e+00  0.0000000000000000e+00 0.0000000000000000e+00 0.0000000000000000e+00  0.0000000000000000e+00 0.0000000000000000e+00 0.0000000000000000e+00  0.0000000000000000e+00 0.0000000000000000e+00 0.0000000000000000e+00  0.0000000000000000e+00 0.0000000000000000e+00 0.0000000000000000e+00  0.0000000000000000e+00 0.0000000000000000e+00 0.0000000000000000e+00  0.0000000000000000e+00 0.0000000000000000e+00 0.0000000000000000e+00  0.0000000000000000e+00 0.0000000000000000e+00 0.0000000000000000e+00  0.0000000000000000e+00 0.0000000000000000e+00 0.0000000000000000e+00  0.0000000000000000e+00 0.0000000000000000e+00 0.0000000000000000e+00  0.0000000000000000e+00 0.0000000000000000e+00 0.0000000000000000e+00  0.0000000000000000e+00 0.0000000000000000e+00 0.0000000000000000e+00  0.0000000000000000e+00 0.0000000000000000e+00 0.0000000000000000e+00  0.0000000000000000e+00 0.0000000000000000e+00 0.0000000000000000e+00  0.0000000000000000e+00 0.0000000000000000e+00 0.0000000000000000e+00  0.0000000000000000e+00 0.0000000000000000e+00 0.0000000000000000e+00  0.0000000000000000e+00 0.0000000000000000e+00 0.0000000000000000e+00  0.0000000000000000e+00 0.0000000000000000e+00 0.0000000000000000e+00  0.0000000000000000e+00 0.0000000000000000e+00 0.0000000000000000e+00  0.0000000000000000e+00 0.0000000000000000e+00 0.0000000000000000e+00  0.0000000000000000e+00 0.0000000000000000e+00 0.0000000000000000e+00  0.0000000000000000e+00 0.0000000000000000e+00 0.0000000000000000e+00  0.0000000000000000e+00 0.0000000000000000e+00 0.0000000000000000e+00  0.0000000000000000e+00 0.0000000000000000e+00 0.0000000000000000e+00  0.0000000000000000e+00 0.0000000000000000e+00 0.0000000000000000e+00  0.0000000000000000e+00 0.0000000000000000e+00 0.0000000000000000e+00  0.0000000000000000e+00 0.0000000000000000e+00 0.0000000000000000e+00  0.0000000000000000e+00 0.0000000000000000e+00 0.0000000000000000e+00  0.0000000000000000e+00 0.0000000000000000e+00 0.0000000000000000e+00  0.0000000000000000e+00 0.0000000000000000e+00 0.0000000000000000e+00  0.0000000000000000e+00 0.0000000000000000e+00 0.0000000000000000e+00  0.0000000000000000e+00 0.0000000000000000e+00 0.0000000000000000e+00  0.0000000000000000e+00 0.0000000000000000e+00 0.0000000000000000e+00  0.0000000000000000e+00 0.0000000000000000e+00 0.0000000000000000e+00  0.0000000000000000e+00 0.0000000000000000e+00 0.0000000000000000e+00  -6.8279768368227105e-05 7.1017858555577870e-05 0.0000000000000000e+00  -1.1267353112653729e-04 1.2231977007032813e-04 0.0000000000000000e+00  -1.4907772556033223e-04 1.6581904067948581e-04 0.0000000000000000e+00  -1.8116097592841144e-04 2.0495954293652774e-04 0.0000000000000000e+00  -2.0995979268767902e-04 2.4107831834751646e-04 0.0000000000000000e+00  -2.3638090438417227e-04 2.7518728682514581e-04 0.0000000000000000e+00  -2.6115666388166000e-04 3.0777480552981069e-04 0.0000000000000000e+00  -2.8394964952877064e-04 3.3930563365731280e-04 0.0000000000000000e+00  -3.0536449647136128e-04 3.6997117451258388e-04 0.0000000000000000e+00  -3.2586149554039354e-04 3.9978364479858558e-04 0.0000000000000000e+00  -3.4523556471978753e-04 4.2909008085810989e-04 0.0000000000000000e+00  -3.6381321828001602e-04 4.5770479069812299e-04 0.0000000000000000e+00  -3.8148158781849850e-04 4.8602281051330688e-04 0.0000000000000000e+00  -3.9860512354070903e-04 5.1372188759565547e-04 0.0000000000000000e+00  -4.1506429552494266e-04 5.4117929518444517e-04 0.0000000000000000e+00  -4.3111561482549508e-04 5.6819232584725068e-04 0.0000000000000000e+00  -4.4651631543825147e-04 5.9487032440942321e-04 0.0000000000000000e+00  -4.6149576396251323e-04 6.2115715350890633e-04 0.0000000000000000e+00  -4.7613850997138503e-04 6.4724856471952527e-04 0.0000000000000000e+00  -4.9030423591552800e-04 6.7293983547799235e-04 0.0000000000000000e+00  -5.0410820248955753e-04 6.9836515129742007e-04 0.0000000000000000e+00  -5.1756284982784064e-04 7.2352659877145576e-04 0.0000000000000000e+00  -5.3069616930225189e-04 7.4838605773724985e-04 0.0000000000000000e+00  -5.4350133981775960e-04 7.7297758684245614e-04 0.0000000000000000e+00  -5.5599410659154861e-04 7.9725616140372490e-04 0.0000000000000000e+00  -5.6817401423698731e-04 8.2124579364119103e-04 0.0000000000000000e+00  -5.8006004565863310e-04 8.4490341013871090e-04 0.0000000000000000e+00  -5.9171895016066052e-04 8.6839686180866177e-04 0.0000000000000000e+00  -6.0297437586765161e-04 8.9156802705705443e-04 0.0000000000000000e+00  -6.1391963909148469e-04 9.1445592162412218e-04 0.0000000000000000e+00  -6.2456623724964680e-04 9.3710341092784416e-04 0.0000000000000000e+00  -6.3493249088199916e-04 9.5943719025578969e-04 0.0000000000000000e+00  -6.4493105741258994e-04 9.8150810834511898e-04 0.0000000000000000e+00  -6.5464055638982718e-04 1.0032694806315007e-03 0.0000000000000000e+00  -6.6401315875238773e-04 1.0248431476441485e-03 0.0000000000000000e+00  -6.7298385237041128e-04 1.0461438762745031e-03 0.0000000000000000e+00  -6.8161870388795892e-04 1.0671984527968626e-03 0.0000000000000000e+00  -6.8992444615852274e-04 1.0879315867211097e-03 0.0000000000000000e+00  -6.9779432163560526e-04 1.1085043395226040e-03 0.0000000000000000e+00  -7.0533765449154755e-04 1.1288212136195343e-03 0.0000000000000000e+00  -7.1244739660295041e-04 1.1489640599628441e-03 0.0000000000000000e+00  -7.1918085012272583e-04 1.1688185332566548e-03 0.0000000000000000e+00  -7.3105933168210349e-04 1.2070026859657646e-03 0.0000000000000000e+00  -7.3627247478309061e-04 1.2253008731048353e-03 0.0000000000000000e+00  -7.4108890956032342e-04 1.2435790178308495e-03 0.0000000000000000e+00  -7.4553846225444275e-04 1.2616804071349838e-03 0.0000000000000000e+00  -7.4961801872101299e-04 1.2797992342538451e-03 0.0000000000000000e+00  -7.5324661972443990e-04 1.2978710770553557e-03 0.0000000000000000e+00  -7.5651779934156858e-04 1.3157765086888799e-03 0.0000000000000000e+00  -7.5937320008278306e-04 1.3336942944994646e-03 0.0000000000000000e+00  -7.6182872501590168e-04 1.3516117062275373e-03 0.0000000000000000e+00  -7.6380602781910109e-04 1.3695445273390339e-03 0.0000000000000000e+00  -7.6545420944615231e-04 1.3873900943732439e-03 0.0000000000000000e+00  -7.6746494721188264e-04 1.4232424605513890e-03 0.0000000000000000e+00  -7.6785648867595466e-04 1.4412090868675021e-03 0.0000000000000000e+00  -7.6786466049500758e-04 1.4593078873765674e-03 0.0000000000000000e+00  -7.6747108088052649e-04 1.4773971877607864e-03 0.0000000000000000e+00  -7.6670320650424034e-04 1.4956644154620201e-03 0.0000000000000000e+00  -7.6554338802577344e-04 1.5140564127176204e-03 0.0000000000000000e+00  -7.6398492911967952e-04 1.5324772451271943e-03 0.0000000000000000e+00  -7.6211346908578869e-04 1.5510957774502823e-03 0.0000000000000000e+00  -7.5991345031168570e-04 1.5698814994029953e-03 0.0000000000000000e+00  -7.5729407410296589e-04 1.5888194521516501e-03 0.0000000000000000e+00  -7.5441796657354783e-04 1.6078457717996345e-03 0.0000000000000000e+00  -7.4750019754050219e-04 1.6477705922506936e-03 0.0000000000000000e+00  -7.4345005688903547e-04 1.6686646144639082e-03 0.0000000000000000e+00  -7.3911825761573786e-04 1.6899184560481674e-03 0.0000000000000000e+00  -7.3447199774439144e-04 1.7114202142243056e-03 0.0000000000000000e+00  -7.2964523596509144e-04 1.7332681446001401e-03 0.0000000000000000e+00  -7.2448393559062239e-04 1.7553823029017744e-03 0.0000000000000000e+00  -7.1914817434943503e-04 1.7778817031571454e-03 0.0000000000000000e+00  -7.1359191949172621e-04 1.8007291984472825e-03 0.0000000000000000e+00  -7.0785758816884294e-04 1.8239313712685769e-03 0.0000000000000000e+00  -7.0192386081395779e-04 1.8474389601338508e-03 0.0000000000000000e+00  -6.9592502397032260e-04 1.8713260075619556e-03 0.0000000000000000e+00  -6.8977201183777984e-04 1.8955678170846332e-03 0.0000000000000000e+00  -6.8356126022642478e-04 1.9201759142369896e-03 0.0000000000000000e+00  -6.7729432065581261e-04 1.9451557221674648e-03 0.0000000000000000e+00  -6.7097403082016659e-04 1.9705036383334566e-03 0.0000000000000000e+00  -6.6459826125843608e-04 1.9961957941619433e-03 0.0000000000000000e+00  -6.5822654149737540e-04 2.0222097649687993e-03 0.0000000000000000e+00  -6.5191919595455959e-04 2.0485992787102271e-03 0.0000000000000000e+00  -6.4566724433761237e-04 2.0753261366584083e-03 0.0000000000000000e+00  -6.3947845595361543e-04 2.1024039995486700e-03 0.0000000000000000e+00  -6.3338152203166196e-04 2.1298380573834910e-03 0.0000000000000000e+00  -6.2735907003230599e-04 2.1576200252059973e-03 0.0000000000000000e+00  -6.2153260784956154e-04 2.1856890439394955e-03 0.0000000000000000e+00  -6.1580134323004358e-04 2.2141091650049920e-03 0.0000000000000000e+00  -6.1028545495979620e-04 2.2427959088532909e-03 0.0000000000000000e+00  -6.0492447385332372e-04 2.2718201481708258e-03 0.0000000000000000e+00  -5.9977261088977349e-04 2.3011382034002163e-03 0.0000000000000000e+00  -5.9485152033495229e-04 2.3306872174598562e-03 0.0000000000000000e+00  -5.9017546287627016e-04 2.3605060607001485e-03 0.0000000000000000e+00  -5.8571766710546422e-04 2.3906387205347825e-03 0.0000000000000000e+00  -5.8158117949105186e-04 2.4209352110156073e-03 0.0000000000000000e+00  -5.7766667585143450e-04 2.4515279044965521e-03 0.0000000000000000e+00  -5.7407349215319215e-04 2.4823291613568425e-03 0.0000000000000000e+00  -5.7077272947641514e-04 2.5134111858598927e-03 0.0000000000000000e+00  -5.6779130311733603e-04 2.5446060150930666e-03 0.0000000000000000e+00  -5.6512188049011780e-04 2.5759881730778294e-03 0.0000000000000000e+00  -5.6280122700041557e-04 2.6075916688858914e-03 0.0000000000000000e+00  -5.6081911971721157e-04 2.6393191396240955e-03 0.0000000000000000e+00  -5.5918983922684934e-04 2.6712159142251962e-03 0.0000000000000000e+00  -5.5787768185628142e-04 2.7032572393097557e-03 0.0000000000000000e+00  -5.5704235942092607e-04 2.7354163242830215e-03 0.0000000000000000e+00  -5.5643066067345888e-04 2.7676565278871462e-03 0.0000000000000000e+00  -5.4217008878023167e-04 2.8000000000000004e-03 0.0000000000000000e+00  -5.2820821521055127e-04 2.8000000000000004e-03 0.0000000000000000e+00  -5.1439039863057710e-04 2.8000000000000004e-03 0.0000000000000000e+00  -5.0065925134951030e-04 2.8000000000000004e-03 0.0000000000000000e+00  -4.8697148760090767e-04 2.8000000000000004e-03 0.0000000000000000e+00  -4.7342141884371846e-04 2.8000000000000004e-03 0.0000000000000000e+00  -4.5987087880172039e-04 2.8000000000000004e-03 0.0000000000000000e+00  -4.4633821159487032e-04 2.8000000000000004e-03 0.0000000000000000e+00  -4.3279624742422368e-04 2.8000000000000004e-03 0.0000000000000000e+00  -4.1933106514230084e-04 2.8000000000000004e-03 0.0000000000000000e+00  -4.0581813346954212e-04 2.8000000000000004e-03 0.0000000000000000e+00  -3.9229141563587567e-04 2.8000000000000000e-03 0.0000000000000000e+00  -3.7874481248938445e-04 2.8000000000000004e-03 0.0000000000000000e+00  -3.6518004848662330e-04 2.8000000000000004e-03 0.0000000000000000e+00  -3.5159080476776804e-04 2.8000000000000004e-03 0.0000000000000000e+00  -3.3794848459110083e-04 2.8000000000000004e-03 0.0000000000000000e+00  -3.2427285407986734e-04 2.8000000000000004e-03 0.0000000000000000e+00  -3.1056726132322379e-04 2.8000000000000004e-03 0.0000000000000000e+00  -2.9683049796594928e-04 2.8000000000000004e-03 0.0000000000000000e+00  -2.8306398329944128e-04 2.8000000000000004e-03 0.0000000000000000e+00  -2.6927133181695934e-04 2.8000000000000004e-03 0.0000000000000000e+00  -2.5545460393161084e-04 2.8000000000000004e-03 0.0000000000000000e+00  -2.4162305768848490e-04 2.8000000000000004e-03 0.0000000000000000e+00  -2.2779256672369981e-04 2.8000000000000004e-03 0.0000000000000000e+00  -2.1394691697429298e-04 2.8000000000000004e-03 0.0000000000000000e+00  -2.0011691937469068e-04 2.8000000000000004e-03 0.0000000000000000e+00  -1.8631854395372320e-04 2.8000000000000004e-03 0.0000000000000000e+00  -1.7253838380646555e-04 2.8000000000000004e-03 0.0000000000000000e+00  -1.5883946881349803e-04 2.8000000000000004e-03 0.0000000000000000e+00  -1.4519812000341503e-04 2.8000000000000004e-03 0.0000000000000000e+00  -1.3162203959796816e-04 2.8000000000000004e-03 0.0000000000000000e+00  -1.1815592501468995e-04 2.8000000000000004e-03 0.0000000000000000e+00  -1.0479059346885130e-04 2.8000000000000004e-03 0.0000000000000000e+00  -9.1510239089922268e-05 2.8000000000000004e-03 0.0000000000000000e+00  -7.8452243930597469e-05 2.8000000000000004e-03 0.0000000000000000e+00  -6.5516360679879451e-05 2.8000000000000004e-03 0.0000000000000000e+00  -5.2762009864567497e-05 2.8000000000000004e-03 0.0000000000000000e+00  -4.0208829535214071e-05 2.8000000000000004e-03 0.0000000000000000e+00  -2.7817892197537107e-05 2.8000000000000004e-03 0.0000000000000000e+00  -1.5706208609051581e-05 2.8000000000000004e-03 0.0000000000000000e+00  -3.8570634944749405e-06 2.8000000000000004e-03 0.0000000000000000e+00  7.7044528302780825e-06 2.8000000000000004e-03 0.0000000000000000e+00  1.9025141413762351e-05 2.8000000000000004e-03 0.0000000000000000e+00  3.0093243924273651e-05 2.8000000000000004e-03 0.0000000000000000e+00  4.0767670564347326e-05 2.8000000000000004e-03 0.0000000000000000e+00  5.1195079482722067e-05 2.8000000000000004e-03 0.0000000000000000e+00  6.1298354383981844e-05 2.8000000000000004e-03 0.0000000000000000e+00  7.0935945247130579e-05 2.8000000000000004e-03 0.0000000000000000e+00  8.0283726170439580e-05 2.8000000000000004e-03 0.0000000000000000e+00  8.9332673309882137e-05 2.8000000000000004e-03 0.0000000000000000e+00  9.7991854443750539e-05 2.8000000000000004e-03 0.0000000000000000e+00  1.0621966496278891e-04 2.8000000000000004e-03 0.0000000000000000e+00  1.1408032133444156e-04 2.8000000000000004e-03 0.0000000000000000e+00  1.2161658860739455e-04 2.8000000000000004e-03 0.0000000000000000e+00  1.2872881707794335e-04 2.8000000000000004e-03 0.0000000000000000e+00  1.3545241502183059e-04 2.8000000000000004e-03 0.0000000000000000e+00  1.4183047308376264e-04 2.8000000000000004e-03 0.0000000000000000e+00  1.4787309854617561e-04 2.8000000000000004e-03 0.0000000000000000e+00  1.5343987309144154e-04 2.8000000000000004e-03 0.0000000000000000e+00  1.5872176987957764e-04 2.8000000000000004e-03 0.0000000000000000e+00  1.6362393236780690e-04 2.8000000000000004e-03 0.0000000000000000e+00  1.6817767673659465e-04 2.8000000000000004e-03 0.0000000000000000e+00  1.7235366567678909e-04 2.8000000000000004e-03 0.0000000000000000e+00  1.7626931425835212e-04 2.8000000000000004e-03 0.0000000000000000e+00  1.7988552799046650e-04 2.8000000000000004e-03 0.0000000000000000