<?xml version="1.0"?>
<VTKFile type="UnstructuredGrid"  version="0.1"  >
<UnstructuredGrid>
<Piece  NumberOfPoints="15540" NumberOfCells="30546">
<Points>
<DataArray  type="Float64"  NumberOfComponents="3"  format="ascii">0 0 0  -0.5 -0.5 0  0.5 -0.5 0  0.5 0 0  0.5 0.5 0  -0.5 0.5 0  -0.5 0.0001 0  -0.5 -0.0001 0  0.5 0.1 0  0.5 -0.1 0  -0.5 -0.1 0  -0.5 0.1 0  -0.4900000000000277 -0.5 0  -0.4800000000000555 -0.5 0  -0.4700000000000832 -0.5 0  -0.4600000000001109 -0.5 0  -0.4500000000001387 -0.5 0  -0.4400000000001664 -0.5 0  -0.4300000000001942 -0.5 0  -0.4200000000002219 -0.5 0  -0.4100000000002497 -0.5 0  -0.4000000000002774 -0.5 0  -0.3900000000003052 -0.5 0  -0.3800000000003328 -0.5 0  -0.3700000000003606 -0.5 0  -0.3600000000003883 -0.5 0  -0.3500000000004161 -0.5 0  -0.3400000000004438 -0.5 0  -0.3300000000004716 -0.5 0  -0.3200000000004993 -0.5 0  -0.3100000000005271 -0.5 0  -0.3000000000005548 -0.5 0  -0.2900000000005825 -0.5 0  -0.2800000000006103 -0.5 0  -0.2700000000006381 -0.5 0  -0.2600000000006658 -0.5 0  -0.2500000000006935 -0.5 0  -0.2400000000007212 -0.5 0  -0.230000000000749 -0.5 0  -0.2200000000007767 -0.5 0  -0.2100000000008044 -0.5 0  -0.2000000000008322 -0.5 0  -0.19000000000086 -0.5 0  -0.1800000000008877 -0.5 0  -0.1700000000009154 -0.5 0  -0.1600000000009431 -0.5 0  -0.1500000000009709 -0.5 0  -0.1400000000009986 -0.5 0  -0.1300000000010264 -0.5 0  -0.1200000000010541 -0.5 0  -0.1100000000010818 -0.5 0  -0.1000000000011096 -0.5 0  -0.09000000000113734 -0.5 0  -0.08000000000116503 -0.5 0  -0.07000000000119283 -0.5 0  -0.06000000000122058 -0.5 0  -0.05000000000124827 -0.5 0  -0.04000000000127607 -0.5 0  -0.03000000000130376 -0.5 0  -0.02000000000133151 -0.5 0  -0.01000000000135925 -0.5 0  -1.376121439022882e-12 -0.5 0  0.009999999998640763 -0.5 0  0.01999999999866864 -0.5 0  0.02999999999869629 -0.5 0  0.03999999999872406 -0.5 0  0.04999999999875182 -0.5 0  0.05999999999877947 -0.5 0  0.06999999999880724 -0.5 0  0.079999999998835 -0.5 0  0.08999999999886266 -0.5 0  0.09999999999889042 -0.5 0  0.1099999999989182 -0.5 0  0.1199999999989459 -0.5 0  0.1299999999989737 -0.5 0  0.1399999999990014 -0.5 0  0.1499999999990291 -0.5 0  0.1599999999990568 -0.5 0  0.1699999999990847 -0.5 0  0.1799999999991124 -0.5 0  0.1899999999991401 -0.5 0  0.1999999999991678 -0.5 0  0.2099999999991955 -0.5 0  0.2199999999992234 -0.5 0  0.2299999999992511 -0.5 0  0.2399999999992788 -0.5 0  0.2499999999993066 -0.5 0  0.2599999999993342 -0.5 0  0.269999999999362 -0.5 0  0.2799999999993897 -0.5 0  0.2899999999994175 -0.5 0  0.2999999999994452 -0.5 0  0.3099999999994729 -0.5 0  0.3199999999995007 -0.5 0  0.3299999999995284 -0.5 0  0.3399999999995562 -0.5 0  0.3499999999995839 -0.5 0  0.3599999999996116 -0.5 0  0.3699999999996393 -0.5 0  0.379999999999667 -0.5 0  0.3899999999996949 -0.5 0  0.3999999999997226 -0.5 0  0.4099999999997503 -0.5 0  0.419999999999778 -0.5 0  0.4299999999998058 -0.5 0  0.4399999999998336 -0.5 0  0.4499999999998613 -0.5 0  0.4599999999998891 -0.5 0  0.4699999999999167 -0.5 0  0.4799999999999445 -0.5 0  0.4899999999999722 -0.5 0  0.5 -0.4902110204681464 0  0.5 -0.4804459958734807 0  0.5 -0.4707048677450883 0  0.5 -0.4609875815766065 0  0.5 -0.4512940759251849 0  0.5 -0.4416242912883993 0  0.5 -0.4319781678689807 0  0.5 -0.4223556545383647 0  0.5 -0.4127566896324213 0  0.5 -0.4031812128200121 0  0.5 -0.3936291733057916 0  0.5 -0.3841005081172659 0  0.5 -0.3745951585781932 0  0.5 -0.3651130778999337 0  0.5 -0.3556541993788045 0  0.5 -0.3462184677228392 0  0.5 -0.3368058273705318 0  0.5 -0.3274162224888609 0  0.5 -0.3180495969712945 0  0.5 -0.3087058944357755 0  0.5 -0.299385058222682 0  0.5 -0.2900870313927414 0  0.5 -0.2808117567250807 0  0.5 -0.2715591844628491 0  0.5 -0.2623292564012653 0  0.5 -0.253121909553727 0  0.5 -0.2439371050851549 0  0.5 -0.2347747685524501 0  0.5 -0.2256348634421331 0  0.5 -0.2165173209784076 0  0.5 -0.207422087829958 0  0.5 -0.1983491207029381 0  0.5 -0.1892983550950482 0  0.5 -0.1802697378305253 0  0.5 -0.1712632154965152 0  0.5 -0.1622787344187354 0  0.5 -0.1533162406595534 0  0.5 -0.1443756800160514 0  0.5 -0.1354569980180493 0  0.5 -0.1265601399261414 0  0.5 -0.1176850622761093 0  0.5 -0.1088317009011999 0  0.5 -0.09166666666668973 0  0.5 -0.08333333333337943 0  0.5 -0.07500000000006915 0  0.5 -0.06666666666675886 0  0.5 -0.05833333333344858 0  0.5 -0.05000000000013693 0  0.5 -0.04166666666678191 0  0.5 -0.03333333333342643 0  0.5 -0.02500000000006916 0  0.5 -0.01666666666671188 0  0.5 -0.00833333333335548 0  0.5 0.008333333333318314 0  0.5 0.01666666666663358 0  0.5 0.02499999999994162 0  0.5 0.03333333333325101 0  0.5 0.04166666666655769 0  0.5 0.04999999999986843 0  0.5 0.05833333333322258 0  0.5 0.06666666666657715 0  0.5 0.07499999999993352 0  0.5 0.08333333333328992 0  0.5 0.09166666666664541 0  0.5 0.1088317009011616 0  0.5 0.1176850622760307 0  0.5 0.1265601399260203 0  0.5 0.1354569980178909 0  0.5 0.1443756800158549 0  0.5 0.153316240659315 0  0.5 0.1622787344184454 0  0.5 0.1712632154961752 0  0.5 0.1802697378301332 0  0.5 0.1892983550946039 0  0.5 0.1983491207024433 0  0.5 0.2074220878294123 0  0.5 0.216517320977811 0  0.5 0.2256348634414833 0  0.5 0.2347747685517479 0  0.5 0.2439371050844009 0  0.5 0.2531219095529224 0  0.5 0.2623292564004089 0  0.5 0.2715591844619371 0  0.5 0.2808117567241139 0  0.5 0.290087031391723 0  0.5 0.2993850582216101 0  0.5 0.3087058944347426 0  0.5 0.3180495969703129 0  0.5 0.3274162224879299 0  0.5 0.3368058273696494 0  0.5 0.3462184677220051 0  0.5 0.3556541993780186 0  0.5 0.3651130778991989 0  0.5 0.3745951585775107 0  0.5 0.3841005081166359 0  0.5 0.3936291733052134 0  0.5 0.4031812128194852 0  0.5 0.412756689631945 0  0.5 0.4223556545379392 0  0.5 0.431978167868607 0  0.5 0.4416242912880781 0  0.5 0.4512940759249164 0  0.5 0.4609875815763912 0  0.5 0.4707048677449264 0  0.5 0.4804459958733726 0  0.5 0.4902110204680924 0  0.4900000000000277 0.5 0  0.4800000000000555 0.5 0  0.4700000000000832 0.5 0  0.4600000000001109 0.5 0  0.4500000000001387 0.5 0  0.4400000000001664 0.5 0  0.4300000000001942 0.5 0  0.4200000000002219 0.5 0  0.4100000000002497 0.5 0  0.4000000000002774 0.5 0  0.3900000000003052 0.5 0  0.3800000000003328 0.5 0  0.3700000000003606 0.5 0  0.3600000000003883 0.5 0  0.3500000000004161 0.5 0  0.3400000000004438 0.5 0  0.3300000000004716 0.5 0  0.3200000000004993 0.5 0  0.3100000000005271 0.5 0  0.3000000000005548 0.5 0  0.2900000000005825 0.5 0  0.2800000000006103 0.5 0  0.2700000000006381 0.5 0  0.2600000000006658 0.5 0  0.2500000000006935 0.5 0  0.2400000000007212 0.5 0  0.230000000000749 0.5 0  0.2200000000007767 0.5 0  0.2100000000008044 0.5 0  0.2000000000008322 0.5 0  0.19000000000086 0.5 0  0.1800000000008877 0.5 0  0.1700000000009154 0.5 0  0.1600000000009431 0.5 0  0.1500000000009709 0.5 0  0.1400000000009986 0.5 0  0.1300000000010264 0.5 0  0.1200000000010541 0.5 0  0.1100000000010818 0.5 0  0.1000000000011096 0.5 0  0.09000000000113734 0.5 0  0.08000000000116503 0.5 0  0.07000000000119283 0.5 0  0.06000000000122058 0.5 0  0.05000000000124827 0.5 0  0.04000000000127607 0.5 0  0.03000000000130376 0.5 0  0.02000000000133151 0.5 0  0.01000000000135925 0.5 0  1.376121439022882e-12 0.5 0  -0.009999999998640763 0.5 0  -0.01999999999866864 0.5 0  -0.02999999999869629 0.5 0  -0.03999999999872406 0.5 0  -0.04999999999875182 0.5 0  -0.05999999999877947 0.5 0  -0.06999999999880724 0.5 0  -0.079999999998835 0.5 0  -0.08999999999886266 0.5 0  -0.09999999999889042 0.5 0  -0.1099999999989182 0.5 0  -0.1199999999989459 0.5 0  -0.1299999999989737 0.5 0  -0.1399999999990014 0.5 0  -0.1499999999990291 0.5 0  -0.1599999999990568 0.5 0  -0.1699999999990847 0.5 0  -0.1799999999991124 0.5 0  -0.1899999999991401 0.5 0  -0.1999999999991678 0.5 0  -0.2099999999991955 0.5 0  -0.2199999999992234 0.5 0  -0.2299999999992511 0.5 0  -0.2399999999992788 0.5 0  -0.2499999999993066 0.5 0  -0.2599999999993342 0.5 0  -0.269999999999362 0.5 0  -0.2799999999993897 0.5 0  -0.2899999999994175 0.5 0  -0.2999999999994452 0.5 0  -0.3099999999994729 0.5 0  -0.3199999999995007 0.5 0  -0.3299999999995284 0.5 0  -0.3399999999995562 0.5 0  -0.3499999999995839 0.5 0  -0.3599999999996116 0.5 0  -0.3699999999996393 0.5 0  -0.379999999999667 0.5 0  -0.3899999999996949 0.5 0  -0.3999999999997226 0.5 0  -0.4099999999997503 0.5 0  -0.419999999999778 0.5 0  -0.4299999999998058 0.5 0  -0.4399999999998336 0.5 0  -0.4499999999998613 0.5 0  -0.4599999999998891 0.5 0  -0.4699999999999167 0.5 0  -0.4799999999999445 0.5 0  -0.4899999999999722 0.5 0  -0.5 0.4902110204681464 0  -0.5 0.4804459958734807 0  -0.5 0.4707048677450883 0  -0.5 0.4609875815766065 0  -0.5 0.4512940759251849 0  -0.5 0.4416242912883993 0  -0.5 0.4319781678689807 0  -0.5 0.4223556545383647 0  -0.5 0.4127566896324213 0  -0.5 0.4031812128200121 0  -0.5 0.3936291733057916 0  -0.5 0.3841005081172659 0  -0.5 0.3745951585781932 0  -0.5 0.3651130778999337 0  -0.5 0.3556541993788045 0  -0.5 0.3462184677228392 0  -0.5 0.3368058273705318 0  -0.5 0.3274162224888609 0  -0.5 0.3180495969712945 0  -0.5 0.3087058944357755 0  -0.5 0.299385058222682 0  -0.5 0.2900870313927414 0  -0.5 0.2808117567250807 0  -0.5 0.2715591844628491 0  -0.5 0.2623292564012653 0  -0.5 0.253121909553727 0  -0.5 0.2439371050851549 0  -0.5 0.2347747685524501 0  -0.5 0.2256348634421331 0  -0.5 0.2165173209784076 0  -0.5 0.207422087829958 0  -0.5 0.1983491207029381 0  -0.5 0.1892983550950482 0  -0.5 0.1802697378305253 0  -0.5 0.1712632154965152 0  -0.5 0.1622787344187354 0  -0.5 0.1533162406595534 0  -0.5 0.1443756800160514 0  -0.5 0.1354569980180493 0  -0.5 0.1265601399261414 0  -0.5 0.1176850622761093 0  -0.5 0.1088317009011999 0  -0.5 0.09167500000001694 0  -0.5 0.08335000000003931 0  -0.5 0.07502500000006167 0  -0.5 0.06670000000008947 0  -0.5 0.05837500000011001 0  -0.5 0.0500500000001328 0  -0.5 0.0417250000001127 0  -0.5 0.03340000000008944 0  -0.5 0.02507500000006573 0  -0.5 0.01675000000004653 0  -0.5 0.008425000000027341 
[...]
<PointData  Vectors="f_20"> 
<DataArray  type="Float64"  Name="f_20"  NumberOfComponents="3" format="ascii">-5.8127052860501064e-06 6.0603268534412997e-05 0.0000000000000000e+00  0.0000000000000000e+00 0.0000000000000000e+00 0.0000000000000000e+00  0.0000000000000000e+00 0.0000000000000000e+00 0.0000000000000000e+00  -4.5912192742909913e-05 4.7453397668865537e-05 0.0000000000000000e+00  9.5743892738714477e-05 6.2999999999999992e-03 0.0000000000000000e+00  1.0135600824226705e-04 6.2999999999999992e-03 0.0000000000000000e+00  9.8494782140204731e-05 6.3010144454146563e-03 0.0000000000000000e+00  -1.2584795335300483e-06 -6.3713725737159066e-07 0.0000000000000000e+00  9.1824988548405928e-05 6.2870806127302411e-03 0.0000000000000000e+00  -7.6709433703665934e-06 1.2697607315997792e-05 0.0000000000000000e+00  -7.6696175960777421e-07 -6.3175514947121107e-07 0.0000000000000000e+00  9.9247767339936838e-05 6.3010106727217309e-03 0.0000000000000000e+00  0.0000000000000000e+00 0.0000000000000000e+00 0.0000000000000000e+00  0.0000000000000000e+00 0.0000000000000000e+00 0.0000000000000000e+00  0.0000000000000000e+00 0.0000000000000000e+00 0.0000000000000000e+00  0.0000000000000000e+00 0.0000000000000000e+00 0.0000000000000000e+00  0.0000000000000000e+00 0.0000000000000000e+00 0.0000000000000000e+00  0.0000000000000000e+00 0.0000000000000000e+00 0.0000000000000000e+00  0.0000000000000000e+00 0.0000000000000000e+00 0.0000000000000000e+00  0.0000000000000000e+00 0.0000000000000000e+00 0.0000000000000000e+00  0.0000000000000000e+00 0.0000000000000000e+00 0.0000000000000000e+00  0.0000000000000000e+00 0.0000000000000000e+00 0.0000000000000000e+00  0.0000000000000000e+00 0.0000000000000000e+00 0.0000000000000000e+00  0.0000000000000000e+00 0.0000000000000000e+00 0.0000000000000000e+00  0.0000000000000000e+00 0.0000000000000000e+00 0.0000000000000000e+00  0.0000000000000000e+00 0.0000000000000000e+00 0.0000000000000000e+00  0.0000000000000000e+00 0.0000000000000000e+00 0.0000000000000000e+00  0.0000000000000000e+00 0.0000000000000000e+00 0.0000000000000000e+00  0.0000000000000000e+00 0.0000000000000000e+00 0.0000000000000000e+00  0.0000000000000000e+00 0.0000000000000000e+00 0.0000000000000000e+00  0.0000000000000000e+00 0.0000000000000000e+00 0.0000000000000000e+00  0.0000000000000000e+00 0.0000000000000000e+00 0.0000000000000000e+00  0.0000000000000000e+00 0.0000000000000000e+00 0.0000000000000000e+00  0.0000000000000000e+00 0.0000000000000000e+00 0.0000000000000000e+00  0.0000000000000000e+00 0.0000000000000000e+00 0.0000000000000000e+00  0.0000000000000000e+00 0.0000000000000000e+00 0.0000000000000000e+00  0.0000000000000000e+00 0.0000000000000000e+00 0.0000000000000000e+00  0.0000000000000000e+00 0.0000000000000000e+00 0.0000000000000000e+00  0.0000000000000000e+00 0.0000000000000000e+00 0.0000000000000000e+00  0.0000000000000000e+00 0.0000000000000000e+00 0.0000000000000000e+00  0.0000000000000000e+00 0.0000000000000000e+00 0.0000000000000000e+00  0.0000000000000000e+00 0.0000000000000000e+00 0.0000000000000000e+00  0.0000000000000000e+00 0.0000000000000000e+00 0.0000000000000000e+00  0.0000000000000000e+00 0.0000000000000000e+00 0.0000000000000000e+00  0.0000000000000000e+00 0.0000000000000000e+00 0.0000000000000000e+00  0.0000000000000000e+00 0.0000000000000000e+00 0.0000000000000000e+00  0.0000000000000000e+00 0.0000000000000000e+00 0.0000000000000000e+00  0.0000000000000000e+00 0.0000000000000000e+00 0.0000000000000000e+00  0.0000000000000000e+00 0.0000000000000000e+00 0.0000000000000000e+00  0.0000000000000000e+00 0.0000000000000000e+00 0.0000000000000000e+00  0.0000000000000000e+00 0.0000000000000000e+00 0.0000000000000000e+00  0.0000000000000000e+00 0.0000000000000000e+00 0.0000000000000000e+00  0.0000000000000000e+00 0.0000000000000000e+00 0.0000000000000000e+00  0.0000000000000000e+00 0.0000000000000000e+00 0.0000000000000000e+00  0.0000000000000000e+00 0.0000000000000000e+00 0.0000000000000000e+00  0.0000000000000000e+00 0.0000000000000000e+00 0.0000000000000000e+00  0.0000000000000000e+00 0.0000000000000000e+00 0.0000000000000000e+00  0.0000000000000000e+00 0.0000000000000000e+00 0.0000000000000000e+00  0.0000000000000000e+00 0.0000000000000000e+00 0.0000000000000000e+00  0.0000000000000000e+00 0.0000000000000000e+00 0.0000000000000000e+00  0.0000000000000000e+00 0.0000000000000000e+00 0.0000000000000000e+00  0.0000000000000000e+00 0.0000000000000000e+00 0.0000000000000000e+00  0.0000000000000000e+00 0.0000000000000000e+00 0.0000000000000000e+00  0.0000000000000000e+00 0.0000000000000000e+00 0.0000000000000000e+00  0.0000000000000000e+00 0.0000000000000000e+00 0.0000000000000000e+00  0.0000000000000000e+00 0.0000000000000000e+00 0.0000000000000000e+00  0.0000000000000000e+00 0.0000000000000000e+00 0.0000000000000000e+00  0.0000000000000000e+00 0.0000000000000000e+00 0.0000000000000000e+00  0.0000000000000000e+00 0.0000000000000000e+00 0.0000000000000000e+00  0.0000000000000000e+00 0.0000000000000000e+00 0.0000000000000000e+00  0.0000000000000000e+00 0.0000000000000000e+00 0.0000000000000000e+00  0.0000000000000000e+00 0.0000000000000000e+00 0.0000000000000000e+00  0.0000000000000000e+00 0.0000000000000000e+00 0.0000000000000000e+00  0.0000000000000000e+00 0.0000000000000000e+00 0.0000000000000000e+00  0.0000000000000000e+00 0.0000000000000000e+00 0.0000000000000000e+00  0.0000000000000000e+00 0.0000000000000000e+00 0.0000000000000000e+00  0.0000000000000000e+00 0.0000000000000000e+00 0.0000000000000000e+00  0.0000000000000000e+00 0.0000000000000000e+00 0.0000000000000000e+00  0.0000000000000000e+00 0.0000000000000000e+00 0.0000000000000000e+00  0.0000000000000000e+00 0.0000000000000000e+00 0.0000000000000000e+00  0.0000000000000000e+00 0.0000000000000000e+00 0.0000000000000000e+00  0.0000000000000000e+00 0.0000000000000000e+00 0.0000000000000000e+00  0.0000000000000000e+00 0.0000000000000000e+00 0.0000000000000000e+00  0.0000000000000000e+00 0.0000000000000000e+00 0.0000000000000000e+00  0.0000000000000000e+00 0.0000000000000000e+00 0.0000000000000000e+00  0.0000000000000000e+00 0.0000000000000000e+00 0.0000000000000000e+00  0.0000000000000000e+00 0.0000000000000000e+00 0.0000000000000000e+00  0.0000000000000000e+00 0.0000000000000000e+00 0.0000000000000000e+00  0.0000000000000000e+00 0.0000000000000000e+00 0.0000000000000000e+00  0.0000000000000000e+00 0.0000000000000000e+00 0.0000000000000000e+00  0.0000000000000000e+00 0.0000000000000000e+00 0.0000000000000000e+00  0.0000000000000000e+00 0.0000000000000000e+00 0.0000000000000000e+00  0.0000000000000000e+00 0.0000000000000000e+00 0.0000000000000000e+00  0.0000000000000000e+00 0.0000000000000000e+00 0.0000000000000000e+00  0.0000000000000000e+00 0.0000000000000000e+00 0.0000000000000000e+00  0.0000000000000000e+00 0.0000000000000000e+00 0.0000000000000000e+00  0.0000000000000000e+00 0.0000000000000000e+00 0.0000000000000000e+00  0.0000000000000000e+00 0.0000000000000000e+00 0.0000000000000000e+00  0.0000000000000000e+00 0.0000000000000000e+00 0.0000000000000000e+00  0.0000000000000000e+00 0.0000000000000000e+00 0.0000000000000000e+00  0.0000000000000000e+00 0.0000000000000000e+00 0.0000000000000000e+00  0.0000000000000000e+00 0.0000000000000000e+00 0.0000000000000000e+00  0.0000000000000000e+00 0.0000000000000000e+00 0.0000000000000000e+00  0.0000000000000000e+00 0.0000000000000000e+00 0.0000000000000000e+00  0.0000000000000000e+00 0.0000000000000000e+00 0.0000000000000000e+00  0.0000000000000000e+00 0.0000000000000000e+00 0.0000000000000000e+00  0.0000000000000000e+00 0.0000000000000000e+00 0.0000000000000000e+00  0.0000000000000000e+00 0.0000000000000000e+00 0.0000000000000000e+00  0.0000000000000000e+00 0.0000000000000000e+00 0.0000000000000000e+00  0.0000000000000000e+00 0.0000000000000000e+00 0.0000000000000000e+00  0.0000000000000000e+00 0.0000000000000000e+00 0.0000000000000000e+00  -5.6340335509171119e-07 5.9170649686803073e-07 0.0000000000000000e+00  -9.2513909274483310e-07 1.0243546380632917e-06 0.0000000000000000e+00  -1.2200697127887766e-06 1.3951843558514571e-06 0.0000000000000000e+00  -1.4773623121356048e-06 1.7340604998624905e-06 0.0000000000000000e+00  -1.7074826630137815e-06 2.0511289748832093e-06 0.0000000000000000e+00  -1.9178215596598925e-06 2.3545160596249468e-06 0.0000000000000000e+00  -2.1145072777317190e-06 2.6478183811783266e-06 0.0000000000000000e+00  -2.2954785259178409e-06 2.9349431297502125e-06 0.0000000000000000e+00  -2.4660167624439704e-06 3.2170823129851877e-06 0.0000000000000000e+00  -2.6295011547760543e-06 3.4942311490130720e-06 0.0000000000000000e+00  -2.7849756854149219e-06 3.7690803805242753e-06 0.0000000000000000e+00  -2.9349168791528195e-06 4.0405059751787484e-06 0.0000000000000000e+00  -3.0791851563180139e-06 4.3109234013784918e-06 0.0000000000000000e+00  -3.2199954461790923e-06 4.5786188711147459e-06 0.0000000000000000e+00  -3.3572270900975520e-06 4.8456769951270165e-06 0.0000000000000000e+00  -3.4921330076660804e-06 5.1112820928004871e-06 0.0000000000000000e+00  -3.6242944800256817e-06 5.3759932898197242e-06 0.0000000000000000e+00  -3.7548895740784424e-06 5.6398877322521286e-06 0.0000000000000000e+00  -3.8842312993493191e-06 5.9034400128825566e-06 0.0000000000000000e+00  -4.0125482019296127e-06 6.1665110089853639e-06 0.0000000000000000e+00  -4.1403200159705001e-06 6.4294244679515379e-06 0.0000000000000000e+00  -4.2678894474611025e-06 6.6922231301301999e-06 0.0000000000000000e+00  -4.3956094705026045e-06 6.9551070278934858e-06 0.0000000000000000e+00  -4.5238085201893832e-06 7.2180915098156936e-06 0.0000000000000000e+00  -4.6527556887346790e-06 7.4815197223519096e-06 0.0000000000000000e+00  -4.7828772839299247e-06 7.7455898702089062e-06 0.0000000000000000e+00  -4.9144539771590943e-06 8.0107554571851268e-06 0.0000000000000000e+00  -5.0468926328645389e-06 8.2759833956983703e-06 0.0000000000000000e+00  -5.1821870009217992e-06 8.5428517172607117e-06 0.0000000000000000e+00  -5.3201063954831939e-06 8.8112296412570710e-06 0.0000000000000000e+00  -5.4609480672804353e-06 9.0807528636631855e-06 0.0000000000000000e+00  -5.6047241500472022e-06 9.3528861411506561e-06 0.0000000000000000e+00  -5.7531360154573477e-06 9.6274300766914192e-06 0.0000000000000000e+00  -5.9056780295064299e-06 9.9057757955551577e-06 0.0000000000000000e+00  -6.0630364496103124e-06 1.0186257675826758e-05 0.0000000000000000e+00  -6.2280431346373477e-06 1.0471462156241123e-05 0.0000000000000000e+00  -6.3997487180840018e-06 1.0761528593926321e-05 0.0000000000000000e+00  -6.5789626940987289e-06 1.1059949084700350e-05 0.0000000000000000e+00  -6.7696857498668438e-06 1.1363497927415951e-05 0.0000000000000000e+00  -6.9703997870336750e-06 1.1677041772495223e-05 0.0000000000000000e+00  -7.1869406694616692e-06 1.2001304879579852e-05 0.0000000000000000e+00  -7.4196715144445653e-06 1.2343053984125742e-05 0.0000000000000000e+00  -7.9375082626832163e-06 1.3058322726958090e-05 0.0000000000000000e+00  -8.2314820618289326e-06 1.3451119212699739e-05 0.0000000000000000e+00  -8.5638754986520495e-06 1.3869792303306712e-05 0.0000000000000000e+00  -8.9490852295852778e-06 1.4355145596616183e-05 0.0000000000000000e+00  -9.3864441892930892e-06 1.4884363275009621e-05 0.0000000000000000e+00  -9.9401097992920032e-06 1.5505219516366600e-05 0.0000000000000000e+00  -1.0627640295170361e-05 1.6334810478447745e-05 0.0000000000000000e+00  -1.1583050356613628e-05 1.7392399764212505e-05 0.0000000000000000e+00  -1.2977159609128673e-05 1.8825763832217634e-05 0.0000000000000000e+00  -1.5333792947820110e-05 2.1316507538277611e-05 0.0000000000000000e+00  -2.1522684000308323e-05 2.7163890863271201e-05 0.0000000000000000e+00  2.5253255477792367e-05 6.2304989457497009e-03 0.0000000000000000e+00  7.7198130765232195e-05 6.2709050906931086e-03 0.0000000000000000e+00  8.3696673991803347e-05 6.2777746524801939e-03 0.0000000000000000e+00  8.6583430188178829e-05 6.2808821613473207e-03 0.0000000000000000e+00  8.8099533646317251e-05 6.2825516740966716e-03 0.0000000000000000e+00  8.9074008761159490e-05 6.2836281385089954e-03 0.0000000000000000e+00  8.9789138008303872e-05 6.2845010060985527e-03 0.0000000000000000e+00  9.0355845560828222e-05 6.2851743038041070e-03 0.0000000000000000e+00  9.0818290913874326e-05 6.2857379253725308e-03 0.0000000000000000e+00  9.1192405076970316e-05 6.2862210293402210e-03 0.0000000000000000e+00  9.1531474096023224e-05 6.2866739016952562e-03 0.0000000000000000e+00  9.2095195949569428e-05 6.2874737816873217e-03 0.0000000000000000e+00  9.2340575133810707e-05 6.2878504023688078e-03 0.0000000000000000e+00  9.2564055593058955e-05 6.2882044404732156e-03 0.0000000000000000e+00  9.2766644093125134e-05 6.2885446917160933e-03 0.0000000000000000e+00  9.2955554357368366e-05 6.2888726917446486e-03 0.0000000000000000e+00  9.3129423462186278e-05 6.2891947917286207e-03 0.0000000000000000e+00  9.3292667385512008e-05 6.2895067711062668e-03 0.0000000000000000e+00  9.3446763915216064e-05 6.2898131967244891e-03 0.0000000000000000e+00  9.3589917266457602e-05 6.2901141579480516e-03 0.0000000000000000e+00  9.3726229443106160e-05 6.2904132174601305e-03 0.0000000000000000e+00  9.3855838572840387e-05 6.2907079876561170e-03 0.0000000000000000e+00  9.3978371555211647e-05 6.2910004030312548e-03 0.0000000000000000e+00  9.4095584658826926e-05 6.2912899460355965e-03 0.0000000000000000e+00  9.4207449660393435e-05 6.2915789108319454e-03 0.0000000000000000e+00  9.4314247505502915e-05 6.2918665917739433e-03 0.0000000000000000e+00  9.4414954307077217e-05 6.2921523421958503e-03 0.0000000000000000e+00  9.4512830589692855e-05 6.2924390911065307e-03 0.0000000000000000e+00  9.4606203638347784e-05 6.2927247536696740e-03 0.0000000000000000e+00  9.4695290686301649e-05 6.2930099411226195e-03 0.0000000000000000e+00  9.4780461923332169e-05 6.2932947996658471e-03 0.0000000000000000e+00  9.4861798790722652e-05 6.2935800663539068e-03 0.0000000000000000e+00  9.4939756988833332e-05 6.2938655972825169e-03 0.0000000000000000e+00  9.5013503589725157e-05 6.2941513819763711e-03 0.0000000000000000e+00  9.5084110873319396e-05 6.2944380210799991e-03 0.0000000000000000e+00  9.5150227085074861e-05 6.2947240681220200e-03 0.0000000000000000e+00  9.5213732410530917e-05 6.2950117666259022e-03 0.0000000000000000e+00  9.5273633571837634e-05 6.2952996767271074e-03 0.0000000000000000e+00  9.5329391589373972e-05 6.2955879538825607e-03 0.0000000000000000e+00  9.5382095538133857e-05 6.2958764989026923e-03 0.0000000000000000e+00  9.5431352018076338e-05 6.2961667047885528e-03 0.0000000000000000e+00  9.5476950368008362e-05 6.2964564501051829e-03 0.0000000000000000e+00  9.5519128677101626e-05 6.2967478515915222e-03 0.0000000000000000e+00  9.5557615974667547e-05 6.2970395789210707e-03 0.0000000000000000e+00  9.5592495465623257e-05 6.2973328157217654e-03 0.0000000000000000e+00  9.5624005072093127e-05 6.2976259424782372e-03 0.0000000000000000e+00  9.5651839848394778e-05 6.2979198250920415e-03 0.0000000000000000e+00  9.5675868011123964e-05 6.2982149024905952e-03 0.0000000000000000e+00  9.5696435100963532e-05 6.2985103740381253e-03 0.0000000000000000e+00  9.5713230444710525e-05 6.2988067948966655e-03 0.0000000000000000e+00  9.5726636246595568e-05 6.2991040840877947e-03 0.0000000000000000e+00  9.5735111960956542e-05 6.2994021240308272e-03 0.0000000000000000e+00  9.5741359318353910e-05 6.2997006680151997e-03 0.0000000000000000e+00  9.5873375439431261e-05 6.2999999999999992e-03 0.0000000000000000e+00  9.6002111559276092e-05 6.2999999999999992e-03 0.0000000000000000e+00  9.6128917863175817e-05 6.2999999999999992e-03 0.0000000000000000e+00  9.6254181570694532e-05 6.3000000000000000e-03 0.0000000000000000e+00  9.6378277375937300e-05 6.2999999999999992e-03 0.0000000000000000e+00  9.6499783237768234e-05 6.2999999999999992e-03 0.0000000000000000e+00  9.6620318617300275e-05 6.2999999999999992e-03 0.0000000000000000e+00  9.6739485851917803e-05 6.2999999999999992e-03 0.0000000000000000e+00  9.6857452718348118e-05 6.2999999999999992e-03 0.0000000000000000e+00  9.6972955832176950e-05 6.2999999999999992e-03 0.0000000000000000e+00  9.7087811700698979e-05 6.2999999999999992e-03 0.0000000000000000e+00  9.7201227911050065e-05 6.2999999999999992e-03 0.0000000000000000e+00  9.7313297727587912e-05 6.2999999999999992e-03 0.0000000000000000e+00  9.7423849580452368e-05 6.2999999999999992e-03 0.0000000000000000e+00  9.7533112759552498e-05 6.2999999999999983e-03 0.0000000000000000e+00  9.7641654870088884e-05 6.2999999999999992e-03 0.0000000000000000e+00  9.7749113736167689e-05 6.2999999999999992e-03 0.0000000000000000e+00  9.7855278841944086e-05 6.2999999999999992e-03 0.0000000000000000e+00  9.7960321228498747e-05 6.2999999999999992e-03 0.0000000000000000e+00  9.8064487998957163e-05 6.2999999999999992e-03 0.0000000000000000e+00  9.8167645981310053e-05 6.2999999999999992e-03 0.0000000000000000e+00  9.8269901061012171e-05 6.2999999999999992e-03 0.0000000000000000e+00  9.8371265161459925e-05 6.2999999999999992e-03 0.0000000000000000e+00  9.8471639289255213e-05 6.2999999999999992e-03 0.0000000000000000e+00  9.8571345775858469e-05 6.2999999999999992e-03 0.0000000000000000e+00  9.8670093610097676e-05 6.2999999999999992e-03 0.0000000000000000e+00  9.8767864753678724e-05 6.2999999999999992e-03 0.0000000000000000e+00  9.8864931636789775e-05 6.2999999999999992e-03 0.0000000000000000e+00  9.8960696701357509e-05 6.2999999999999992e-03 0.0000000000000000e+00  9.9055573776329068e-05 6.2999999999999992e-03 0.0000000000000000e+00  9.9149579297294713e-05 6.2999999999999992e-03 0.0000000000000000e+00  9.9242379030933358e-05 6.2999999999999992e-03 0.0000000000000000e+00  9.9334190813897541e-05 6.2999999999999992e-03 0.0000000000000000e+00  9.9425246595021208e-05 6.2999999999999992e-03 0.0000000000000000e+00  9.9514339954214488e-05 6.3000000000000000e-03 0.0000000000000000e+00  9.9602538089357969e-05 6.2999999999999992e-03 0.0000000000000000e+00  9.9689380250799937e-05 6.2999999999999992e-03 0.0000000000000000e+00  9.9774752784154440e-05 6.2999999999999992e-03 0.0000000000000000e+00  9.9859062362271292e-05 6.2999999999999992e-03 0.0000000000000000e+00  9.9941337072783596e-05 6.2999999999999992e-03 0.0000000000000000e+00  1.0002184784962544e-04 6.2999999999999992e-03 0.0000000000000000e+00  1.0010045460399923e-04 6.2999999999999992e-03 0.0000000000000000e+00  1.0017754467983380e-04 6.2999999999999992e-03 0.0000000000000000e+00  1.0025300820740118e-04 6.2999999999999983e-03 0.0000000000000000e+00  1.0032586480470429e-04 6.2999999999999992e-03 0.0000000000000000e+00  1.0039720896716051e-04 6.2999999999999992e-03 0.0000000000000000e+00  1.0046652411840628e-04 6.2999999999999992e-03 0.0000000000000000e+00  1.0053268372373916e-04 6.2999999999999983e-03 0.0000000000000000e+00  1.0059706382786636e-04 6.2999999999999992e-03 0.0000000000000000e+00  1.0065959252665688e-04 6.2999999999999992e-03 0.0000000000000000e+00  1.0071958645612587e-04 6.2999999999999992e-03 0.0000000000000000e+00  1.0077676579835062e-04 6.2999999999999992e-03 0.0000000000000000e+00  1.0083158973428114e-04 6.2999999999999992e-03 0.0000000000000000e+00  1.0088438319082874e-04 6.2999999999999992e-03 0.0000000000000000e+00  1.0093431587149387e-04 6.2999999999999992e-03 0.0000000000000000e+00  1.0098174390346205e-04 6.3000000000000000e-03 0.0000000000000000e+00  1.0102690428023144e-04 6.2999999999999992e-03 0.0000000000000000e+00  1.0106988198583750e-04 6.2999999999999992e-03 0.0000000000000000e+00  1.0110965873348713e-04 6.2999999999999992e-03 0.0000000000000000e+00  1.0114755786907083e-04 6.2999999999999992e-03 0.0000000000000000e+00  1.0118290590537012e-04 6.2999999999999992e-03 0.0000000000000000e+00  1.0121590104050062e-04 6.2999999999999992e-03 0.0000000000000000e+00  1.0124633227746023e-04 6.2999999999999992e-03 0.0000000000000000e+00  1.0127500586732015e-04 6.2999999999999992e-03 0.0000000000000000e+00  1.0130163920167481e-04 6.2999999999999992e-03 0.0000000000000000e+00  1.0132604928714343e-04 6.2999999999999992e-03 0.0000000000000000e+00  1.0134820999719259e-04