<?xml version="1.0"?>
<VTKFile type="UnstructuredGrid"  version="0.1"  >
<UnstructuredGrid>
<Piece  NumberOfPoints="15540" NumberOfCells="30546">
<Points>
<DataArray  type="Float64"  NumberOfComponents="3"  format="ascii">0 0 0  -0.5 -0.5 0  0.5 -0.5 0  0.5 0 0  0.5 0.5 0  -0.5 0.5 0  -0.5 0.0001 0  -0.5 -0.0001 0  0.5 0.1 0  0.5 -0.1 0  -0.5 -0.1 0  -0.5 0.1 0  -0.4900000000000277 -0.5 0  -0.4800000000000555 -0.5 0  -0.4700000000000832 -0.5 0  -0.4600000000001109 -0.5 0  -0.4500000000001387 -0.5 0  -0.4400000000001664 -0.5 0  -0.4300000000001942 -0.5 0  -0.4200000000002219 -0.5 0  -0.4100000000002497 -0.5 0  -0.4000000000002774 -0.5 0  -0.3900000000003052 -0.5 0  -0.3800000000003328 -0.5 0  -0.3700000000003606 -0.5 0  -0.3600000000003883 -0.5 0  -0.3500000000004161 -0.5 0  -0.3400000000004438 -0.5 0  -0.3300000000004716 -0.5 0  -0.3200000000004993 -0.5 0  -0.3100000000005271 -0.5 0  -0.3000000000005548 -0.5 0  -0.2900000000005825 -0.5 0  -0.2800000000006103 -0.5 0  -0.2700000000006381 -0.5 0  -0.2600000000006658 -0.5 0  -0.2500000000006935 -0.5 0  -0.2400000000007212 -0.5 0  -0.230000000000749 -0.5 0  -0.2200000000007767 -0.5 0  -0.2100000000008044 -0.5 0  -0.2000000000008322 -0.5 0  -0.19000000000086 -0.5 0  -0.1800000000008877 -0.5 0  -0.1700000000009154 -0.5 0  -0.1600000000009431 -0.5 0  -0.1500000000009709 -0.5 0  -0.1400000000009986 -0.5 0  -0.1300000000010264 -0.5 0  -0.1200000000010541 -0.5 0  -0.1100000000010818 -0.5 0  -0.1000000000011096 -0.5 0  -0.09000000000113734 -0.5 0  -0.08000000000116503 -0.5 0  -0.07000000000119283 -0.5 0  -0.06000000000122058 -0.5 0  -0.05000000000124827 -0.5 0  -0.04000000000127607 -0.5 0  -0.03000000000130376 -0.5 0  -0.02000000000133151 -0.5 0  -0.01000000000135925 -0.5 0  -1.376121439022882e-12 -0.5 0  0.009999999998640763 -0.5 0  0.01999999999866864 -0.5 0  0.02999999999869629 -0.5 0  0.03999999999872406 -0.5 0  0.04999999999875182 -0.5 0  0.05999999999877947 -0.5 0  0.06999999999880724 -0.5 0  0.079999999998835 -0.5 0  0.08999999999886266 -0.5 0  0.09999999999889042 -0.5 0  0.1099999999989182 -0.5 0  0.1199999999989459 -0.5 0  0.1299999999989737 -0.5 0  0.1399999999990014 -0.5 0  0.1499999999990291 -0.5 0  0.1599999999990568 -0.5 0  0.1699999999990847 -0.5 0  0.1799999999991124 -0.5 0  0.1899999999991401 -0.5 0  0.1999999999991678 -0.5 0  0.2099999999991955 -0.5 0  0.2199999999992234 -0.5 0  0.2299999999992511 -0.5 0  0.2399999999992788 -0.5 0  0.2499999999993066 -0.5 0  0.2599999999993342 -0.5 0  0.269999999999362 -0.5 0  0.2799999999993897 -0.5 0  0.2899999999994175 -0.5 0  0.2999999999994452 -0.5 0  0.3099999999994729 -0.5 0  0.3199999999995007 -0.5 0  0.3299999999995284 -0.5 0  0.3399999999995562 -0.5 0  0.3499999999995839 -0.5 0  0.3599999999996116 -0.5 0  0.3699999999996393 -0.5 0  0.379999999999667 -0.5 0  0.3899999999996949 -0.5 0  0.3999999999997226 -0.5 0  0.4099999999997503 -0.5 0  0.419999999999778 -0.5 0  0.4299999999998058 -0.5 0  0.4399999999998336 -0.5 0  0.4499999999998613 -0.5 0  0.4599999999998891 -0.5 0  0.4699999999999167 -0.5 0  0.4799999999999445 -0.5 0  0.4899999999999722 -0.5 0  0.5 -0.4902110204681464 0  0.5 -0.4804459958734807 0  0.5 -0.4707048677450883 0  0.5 -0.4609875815766065 0  0.5 -0.4512940759251849 0  0.5 -0.4416242912883993 0  0.5 -0.4319781678689807 0  0.5 -0.4223556545383647 0  0.5 -0.4127566896324213 0  0.5 -0.4031812128200121 0  0.5 -0.3936291733057916 0  0.5 -0.3841005081172659 0  0.5 -0.3745951585781932 0  0.5 -0.3651130778999337 0  0.5 -0.3556541993788045 0  0.5 -0.3462184677228392 0  0.5 -0.3368058273705318 0  0.5 -0.3274162224888609 0  0.5 -0.3180495969712945 0  0.5 -0.3087058944357755 0  0.5 -0.299385058222682 0  0.5 -0.2900870313927414 0  0.5 -0.2808117567250807 0  0.5 -0.2715591844628491 0  0.5 -0.2623292564012653 0  0.5 -0.253121909553727 0  0.5 -0.2439371050851549 0  0.5 -0.2347747685524501 0  0.5 -0.2256348634421331 0  0.5 -0.2165173209784076 0  0.5 -0.207422087829958 0  0.5 -0.1983491207029381 0  0.5 -0.1892983550950482 0  0.5 -0.1802697378305253 0  0.5 -0.1712632154965152 0  0.5 -0.1622787344187354 0  0.5 -0.1533162406595534 0  0.5 -0.1443756800160514 0  0.5 -0.1354569980180493 0  0.5 -0.1265601399261414 0  0.5 -0.1176850622761093 0  0.5 -0.1088317009011999 0  0.5 -0.09166666666668973 0  0.5 -0.08333333333337943 0  0.5 -0.07500000000006915 0  0.5 -0.06666666666675886 0  0.5 -0.05833333333344858 0  0.5 -0.05000000000013693 0  0.5 -0.04166666666678191 0  0.5 -0.03333333333342643 0  0.5 -0.02500000000006916 0  0.5 -0.01666666666671188 0  0.5 -0.00833333333335548 0  0.5 0.008333333333318314 0  0.5 0.01666666666663358 0  0.5 0.02499999999994162 0  0.5 0.03333333333325101 0  0.5 0.04166666666655769 0  0.5 0.04999999999986843 0  0.5 0.05833333333322258 0  0.5 0.06666666666657715 0  0.5 0.07499999999993352 0  0.5 0.08333333333328992 0  0.5 0.09166666666664541 0  0.5 0.1088317009011616 0  0.5 0.1176850622760307 0  0.5 0.1265601399260203 0  0.5 0.1354569980178909 0  0.5 0.1443756800158549 0  0.5 0.153316240659315 0  0.5 0.1622787344184454 0  0.5 0.1712632154961752 0  0.5 0.1802697378301332 0  0.5 0.1892983550946039 0  0.5 0.1983491207024433 0  0.5 0.2074220878294123 0  0.5 0.216517320977811 0  0.5 0.2256348634414833 0  0.5 0.2347747685517479 0  0.5 0.2439371050844009 0  0.5 0.2531219095529224 0  0.5 0.2623292564004089 0  0.5 0.2715591844619371 0  0.5 0.2808117567241139 0  0.5 0.290087031391723 0  0.5 0.2993850582216101 0  0.5 0.3087058944347426 0  0.5 0.3180495969703129 0  0.5 0.3274162224879299 0  0.5 0.3368058273696494 0  0.5 0.3462184677220051 0  0.5 0.3556541993780186 0  0.5 0.3651130778991989 0  0.5 0.3745951585775107 0  0.5 0.3841005081166359 0  0.5 0.3936291733052134 0  0.5 0.4031812128194852 0  0.5 0.412756689631945 0  0.5 0.4223556545379392 0  0.5 0.431978167868607 0  0.5 0.4416242912880781 0  0.5 0.4512940759249164 0  0.5 0.4609875815763912 0  0.5 0.4707048677449264 0  0.5 0.4804459958733726 0  0.5 0.4902110204680924 0  0.4900000000000277 0.5 0  0.4800000000000555 0.5 0  0.4700000000000832 0.5 0  0.4600000000001109 0.5 0  0.4500000000001387 0.5 0  0.4400000000001664 0.5 0  0.4300000000001942 0.5 0  0.4200000000002219 0.5 0  0.4100000000002497 0.5 0  0.4000000000002774 0.5 0  0.3900000000003052 0.5 0  0.3800000000003328 0.5 0  0.3700000000003606 0.5 0  0.3600000000003883 0.5 0  0.3500000000004161 0.5 0  0.3400000000004438 0.5 0  0.3300000000004716 0.5 0  0.3200000000004993 0.5 0  0.3100000000005271 0.5 0  0.3000000000005548 0.5 0  0.2900000000005825 0.5 0  0.2800000000006103 0.5 0  0.2700000000006381 0.5 0  0.2600000000006658 0.5 0  0.2500000000006935 0.5 0  0.2400000000007212 0.5 0  0.230000000000749 0.5 0  0.2200000000007767 0.5 0  0.2100000000008044 0.5 0  0.2000000000008322 0.5 0  0.19000000000086 0.5 0  0.1800000000008877 0.5 0  0.1700000000009154 0.5 0  0.1600000000009431 0.5 0  0.1500000000009709 0.5 0  0.1400000000009986 0.5 0  0.1300000000010264 0.5 0  0.1200000000010541 0.5 0  0.1100000000010818 0.5 0  0.1000000000011096 0.5 0  0.09000000000113734 0.5 0  0.08000000000116503 0.5 0  0.07000000000119283 0.5 0  0.06000000000122058 0.5 0  0.05000000000124827 0.5 0  0.04000000000127607 0.5 0  0.03000000000130376 0.5 0  0.02000000000133151 0.5 0  0.01000000000135925 0.5 0  1.376121439022882e-12 0.5 0  -0.009999999998640763 0.5 0  -0.01999999999866864 0.5 0  -0.02999999999869629 0.5 0  -0.03999999999872406 0.5 0  -0.04999999999875182 0.5 0  -0.05999999999877947 0.5 0  -0.06999999999880724 0.5 0  -0.079999999998835 0.5 0  -0.08999999999886266 0.5 0  -0.09999999999889042 0.5 0  -0.1099999999989182 0.5 0  -0.1199999999989459 0.5 0  -0.1299999999989737 0.5 0  -0.1399999999990014 0.5 0  -0.1499999999990291 0.5 0  -0.1599999999990568 0.5 0  -0.1699999999990847 0.5 0  -0.1799999999991124 0.5 0  -0.1899999999991401 0.5 0  -0.1999999999991678 0.5 0  -0.2099999999991955 0.5 0  -0.2199999999992234 0.5 0  -0.2299999999992511 0.5 0  -0.2399999999992788 0.5 0  -0.2499999999993066 0.5 0  -0.2599999999993342 0.5 0  -0.269999999999362 0.5 0  -0.2799999999993897 0.5 0  -0.2899999999994175 0.5 0  -0.2999999999994452 0.5 0  -0.3099999999994729 0.5 0  -0.3199999999995007 0.5 0  -0.3299999999995284 0.5 0  -0.3399999999995562 0.5 0  -0.3499999999995839 0.5 0  -0.3599999999996116 0.5 0  -0.3699999999996393 0.5 0  -0.379999999999667 0.5 0  -0.3899999999996949 0.5 0  -0.3999999999997226 0.5 0  -0.4099999999997503 0.5 0  -0.419999999999778 0.5 0  -0.4299999999998058 0.5 0  -0.4399999999998336 0.5 0  -0.4499999999998613 0.5 0  -0.4599999999998891 0.5 0  -0.4699999999999167 0.5 0  -0.4799999999999445 0.5 0  -0.4899999999999722 0.5 0  -0.5 0.4902110204681464 0  -0.5 0.4804459958734807 0  -0.5 0.4707048677450883 0  -0.5 0.4609875815766065 0  -0.5 0.4512940759251849 0  -0.5 0.4416242912883993 0  -0.5 0.4319781678689807 0  -0.5 0.4223556545383647 0  -0.5 0.4127566896324213 0  -0.5 0.4031812128200121 0  -0.5 0.3936291733057916 0  -0.5 0.3841005081172659 0  -0.5 0.3745951585781932 0  -0.5 0.3651130778999337 0  -0.5 0.3556541993788045 0  -0.5 0.3462184677228392 0  -0.5 0.3368058273705318 0  -0.5 0.3274162224888609 0  -0.5 0.3180495969712945 0  -0.5 0.3087058944357755 0  -0.5 0.299385058222682 0  -0.5 0.2900870313927414 0  -0.5 0.2808117567250807 0  -0.5 0.2715591844628491 0  -0.5 0.2623292564012653 0  -0.5 0.253121909553727 0  -0.5 0.2439371050851549 0  -0.5 0.2347747685524501 0  -0.5 0.2256348634421331 0  -0.5 0.2165173209784076 0  -0.5 0.207422087829958 0  -0.5 0.1983491207029381 0  -0.5 0.1892983550950482 0  -0.5 0.1802697378305253 0  -0.5 0.1712632154965152 0  -0.5 0.1622787344187354 0  -0.5 0.1533162406595534 0  -0.5 0.1443756800160514 0  -0.5 0.1354569980180493 0  -0.5 0.1265601399261414 0  -0.5 0.1176850622761093 0  -0.5 0.1088317009011999 0  -0.5 0.09167500000001694 0  -0.5 0.08335000000003931 0  -0.5 0.07502500000006167 0  -0.5 0.06670000000008947 0  -0.5 0.05837500000011001 0  -0.5 0.0500500000001328 0  -0.5 0.0417250000001127 0  -0.5 0.03340000000008944 0  -0.5 0.02507500000006573 0  -0.5 0.01675000000004653 0  -0.5 0.008425000000027341 
[...]
<PointData  Vectors="f_20"> 
<DataArray  type="Float64"  Name="f_20"  NumberOfComponents="3" format="ascii">-5.4775757697409348e-06 5.6234935683787758e-05 0.0000000000000000e+00  0.0000000000000000e+00 0.0000000000000000e+00 0.0000000000000000e+00  0.0000000000000000e+00 0.0000000000000000e+00 0.0000000000000000e+00  -4.3459408648780300e-05 4.4918071908166608e-05 0.0000000000000000e+00  1.0915865202327829e-04 7.0000000000000001e-03 0.0000000000000000e+00  1.1426351853955063e-04 7.0000000000000010e-03 0.0000000000000000e+00  1.1165751864833440e-04 7.0009226564879965e-03 0.0000000000000000e+00  -1.1491432072488825e-06 -5.8079902580519965e-07 0.0000000000000000e+00  1.0556958052918499e-04 6.9881807108697061e-03 0.0000000000000000e+00  -6.9911614391305986e-06 1.1605367086410983e-05 0.0000000000000000e+00  -7.0052220812634036e-07 -5.7588382226341342e-07 0.0000000000000000e+00  1.1234370111775991e-04 7.0009192004036533e-03 0.0000000000000000e+00  0.0000000000000000e+00 0.0000000000000000e+00 0.0000000000000000e+00  0.0000000000000000e+00 0.0000000000000000e+00 0.0000000000000000e+00  0.0000000000000000e+00 0.0000000000000000e+00 0.0000000000000000e+00  0.0000000000000000e+00 0.0000000000000000e+00 0.0000000000000000e+00  0.0000000000000000e+00 0.0000000000000000e+00 0.0000000000000000e+00  0.0000000000000000e+00 0.0000000000000000e+00 0.0000000000000000e+00  0.0000000000000000e+00 0.0000000000000000e+00 0.0000000000000000e+00  0.0000000000000000e+00 0.0000000000000000e+00 0.0000000000000000e+00  0.0000000000000000e+00 0.0000000000000000e+00 0.0000000000000000e+00  0.0000000000000000e+00 0.0000000000000000e+00 0.0000000000000000e+00  0.0000000000000000e+00 0.0000000000000000e+00 0.0000000000000000e+00  0.0000000000000000e+00 0.0000000000000000e+00 0.0000000000000000e+00  0.0000000000000000e+00 0.0000000000000000e+00 0.0000000000000000e+00  0.0000000000000000e+00 0.0000000000000000e+00 0.0000000000000000e+00  0.0000000000000000e+00 0.0000000000000000e+00 0.0000000000000000e+00  0.0000000000000000e+00 0.0000000000000000e+00 0.0000000000000000e+00  0.0000000000000000e+00 0.0000000000000000e+00 0.0000000000000000e+00  0.0000000000000000e+00 0.0000000000000000e+00 0.0000000000000000e+00  0.0000000000000000e+00 0.0000000000000000e+00 0.0000000000000000e+00  0.0000000000000000e+00 0.0000000000000000e+00 0.0000000000000000e+00  0.0000000000000000e+00 0.0000000000000000e+00 0.0000000000000000e+00  0.0000000000000000e+00 0.0000000000000000e+00 0.0000000000000000e+00  0.0000000000000000e+00 0.0000000000000000e+00 0.0000000000000000e+00  0.0000000000000000e+00 0.0000000000000000e+00 0.0000000000000000e+00  0.0000000000000000e+00 0.0000000000000000e+00 0.0000000000000000e+00  0.0000000000000000e+00 0.0000000000000000e+00 0.0000000000000000e+00  0.0000000000000000e+00 0.0000000000000000e+00 0.0000000000000000e+00  0.0000000000000000e+00 0.0000000000000000e+00 0.0000000000000000e+00  0.0000000000000000e+00 0.0000000000000000e+00 0.0000000000000000e+00  0.0000000000000000e+00 0.0000000000000000e+00 0.0000000000000000e+00  0.0000000000000000e+00 0.0000000000000000e+00 0.0000000000000000e+00  0.0000000000000000e+00 0.0000000000000000e+00 0.0000000000000000e+00  0.0000000000000000e+00 0.0000000000000000e+00 0.0000000000000000e+00  0.0000000000000000e+00 0.0000000000000000e+00 0.0000000000000000e+00  0.0000000000000000e+00 0.0000000000000000e+00 0.0000000000000000e+00  0.0000000000000000e+00 0.0000000000000000e+00 0.0000000000000000e+00  0.0000000000000000e+00 0.0000000000000000e+00 0.0000000000000000e+00  0.0000000000000000e+00 0.0000000000000000e+00 0.0000000000000000e+00  0.0000000000000000e+00 0.0000000000000000e+00 0.0000000000000000e+00  0.0000000000000000e+00 0.0000000000000000e+00 0.0000000000000000e+00  0.0000000000000000e+00 0.0000000000000000e+00 0.0000000000000000e+00  0.0000000000000000e+00 0.0000000000000000e+00 0.0000000000000000e+00  0.0000000000000000e+00 0.0000000000000000e+00 0.0000000000000000e+00  0.0000000000000000e+00 0.0000000000000000e+00 0.0000000000000000e+00  0.0000000000000000e+00 0.0000000000000000e+00 0.0000000000000000e+00  0.0000000000000000e+00 0.0000000000000000e+00 0.0000000000000000e+00  0.0000000000000000e+00 0.0000000000000000e+00 0.0000000000000000e+00  0.0000000000000000e+00 0.0000000000000000e+00 0.0000000000000000e+00  0.0000000000000000e+00 0.0000000000000000e+00 0.0000000000000000e+00  0.0000000000000000e+00 0.0000000000000000e+00 0.0000000000000000e+00  0.0000000000000000e+00 0.0000000000000000e+00 0.0000000000000000e+00  0.0000000000000000e+00 0.0000000000000000e+00 0.0000000000000000e+00  0.0000000000000000e+00 0.0000000000000000e+00 0.0000000000000000e+00  0.0000000000000000e+00 0.0000000000000000e+00 0.0000000000000000e+00  0.0000000000000000e+00 0.0000000000000000e+00 0.0000000000000000e+00  0.0000000000000000e+00 0.0000000000000000e+00 0.0000000000000000e+00  0.0000000000000000e+00 0.0000000000000000e+00 0.0000000000000000e+00  0.0000000000000000e+00 0.0000000000000000e+00 0.0000000000000000e+00  0.0000000000000000e+00 0.0000000000000000e+00 0.0000000000000000e+00  0.0000000000000000e+00 0.0000000000000000e+00 0.0000000000000000e+00  0.0000000000000000e+00 0.0000000000000000e+00 0.0000000000000000e+00  0.0000000000000000e+00 0.0000000000000000e+00 0.0000000000000000e+00  0.0000000000000000e+00 0.0000000000000000e+00 0.0000000000000000e+00  0.0000000000000000e+00 0.0000000000000000e+00 0.0000000000000000e+00  0.0000000000000000e+00 0.0000000000000000e+00 0.0000000000000000e+00  0.0000000000000000e+00 0.0000000000000000e+00 0.0000000000000000e+00  0.0000000000000000e+00 0.0000000000000000e+00 0.0000000000000000e+00  0.0000000000000000e+00 0.0000000000000000e+00 0.0000000000000000e+00  0.0000000000000000e+00 0.0000000000000000e+00 0.0000000000000000e+00  0.0000000000000000e+00 0.0000000000000000e+00 0.0000000000000000e+00  0.0000000000000000e+00 0.0000000000000000e+00 0.0000000000000000e+00  0.0000000000000000e+00 0.0000000000000000e+00 0.0000000000000000e+00  0.0000000000000000e+00 0.0000000000000000e+00 0.0000000000000000e+00  0.0000000000000000e+00 0.0000000000000000e+00 0.0000000000000000e+00  0.0000000000000000e+00 0.0000000000000000e+00 0.0000000000000000e+00  0.0000000000000000e+00 0.0000000000000000e+00 0.0000000000000000e+00  0.0000000000000000e+00 0.0000000000000000e+00 0.0000000000000000e+00  0.0000000000000000e+00 0.0000000000000000e+00 0.0000000000000000e+00  0.0000000000000000e+00 0.0000000000000000e+00 0.0000000000000000e+00  0.0000000000000000e+00 0.0000000000000000e+00 0.0000000000000000e+00  0.0000000000000000e+00 0.0000000000000000e+00 0.0000000000000000e+00  0.0000000000000000e+00 0.0000000000000000e+00 0.0000000000000000e+00  0.0000000000000000e+00 0.0000000000000000e+00 0.0000000000000000e+00  0.0000000000000000e+00 0.0000000000000000e+00 0.0000000000000000e+00  0.0000000000000000e+00 0.0000000000000000e+00 0.0000000000000000e+00  0.0000000000000000e+00 0.0000000000000000e+00 0.0000000000000000e+00  0.0000000000000000e+00 0.0000000000000000e+00 0.0000000000000000e+00  0.0000000000000000e+00 0.0000000000000000e+00 0.0000000000000000e+00  0.0000000000000000e+00 0.0000000000000000e+00 0.0000000000000000e+00  0.0000000000000000e+00 0.0000000000000000e+00 0.0000000000000000e+00  0.0000000000000000e+00 0.0000000000000000e+00 0.0000000000000000e+00  0.0000000000000000e+00 0.0000000000000000e+00 0.0000000000000000e+00  0.0000000000000000e+00 0.0000000000000000e+00 0.0000000000000000e+00  0.0000000000000000e+00 0.0000000000000000e+00 0.0000000000000000e+00  0.0000000000000000e+00 0.0000000000000000e+00 0.0000000000000000e+00  0.0000000000000000e+00 0.0000000000000000e+00 0.0000000000000000e+00  0.0000000000000000e+00 0.0000000000000000e+00 0.0000000000000000e+00  0.0000000000000000e+00 0.0000000000000000e+00 0.0000000000000000e+00  0.0000000000000000e+00 0.0000000000000000e+00 0.0000000000000000e+00  -5.1289775156098176e-07 5.3872315466035446e-07 0.0000000000000000e+00  -8.4211851976330649e-07 9.3266394914481719e-07 0.0000000000000000e+00  -1.1104978663510580e-06 1.2703469596733541e-06 0.0000000000000000e+00  -1.3445735698862175e-06 1.5789682883522516e-06 0.0000000000000000e+00  -1.5539030476348268e-06 1.8677647405351801e-06 0.0000000000000000e+00  -1.7452148421637201e-06 2.1441326974694979e-06 0.0000000000000000e+00  -1.9240889144675844e-06 2.4113420047591131e-06 0.0000000000000000e+00  -2.0886574365975608e-06 2.6729519806678621e-06 0.0000000000000000e+00  -2.2437311922476257e-06 2.9300448499443429e-06 0.0000000000000000e+00  -2.3923807280342279e-06 3.1826139305139836e-06 0.0000000000000000e+00  -2.5337446823205305e-06 3.4331123278405524e-06 0.0000000000000000e+00  -2.6700721398743819e-06 3.6805194980769783e-06 0.0000000000000000e+00  -2.8012484016211988e-06 3.9270289958171819e-06 0.0000000000000000e+00  -2.9292746601980241e-06 4.1710865403181808e-06 0.0000000000000000e+00  -3.0540541673885958e-06 4.4145860202462551e-06 0.0000000000000000e+00  -3.1767161108113663e-06 4.6567938714659015e-06 0.0000000000000000e+00  -3.2968957093055495e-06 4.8982118545504384e-06 0.0000000000000000e+00  -3.4156556503756388e-06 5.1389219459524703e-06 0.0000000000000000e+00  -3.5332803435966793e-06 5.3793484738080316e-06 0.0000000000000000e+00  -3.6499859908064126e-06 5.6193761179806842e-06 0.0000000000000000e+00  -3.7662119343833895e-06 5.8593004746675617e-06 0.0000000000000000e+00  -3.8822619112145150e-06 6.0991556055231443e-06 0.0000000000000000e+00  -3.9984661080424679e-06 6.3391372724901836e-06 0.0000000000000000e+00  -4.1151260294373562e-06 6.5792603644230934e-06 0.0000000000000000e+00  -4.2324880740244262e-06 6.8198469505395081e-06 0.0000000000000000e+00  -4.3509434638416153e-06 7.0610786241080996e-06 0.0000000000000000e+00  -4.4707426528827341e-06 7.3033844216184318e-06 0.0000000000000000e+00  -4.5913397176631950e-06 7.5457994728517488e-06 0.0000000000000000e+00  -4.7145897665403631e-06 7.7897924904861537e-06 0.0000000000000000e+00  -4.8402750127685152e-06 8.0352530036237701e-06 0.0000000000000000e+00  -4.9686649258730175e-06 8.2818502195443510e-06 0.0000000000000000e+00  -5.0997600150948586e-06 8.5309462077353037e-06 0.0000000000000000e+00  -5.2351637651140861e-06 8.7823599956349171e-06 0.0000000000000000e+00  -5.3743596598144917e-06 9.0373942104303275e-06 0.0000000000000000e+00  -5.5180402204340901e-06 9.2945075315485428e-06 0.0000000000000000e+00  -5.6687902798300371e-06 9.5561052792618976e-06 0.0000000000000000e+00  -5.8257620563187908e-06 9.8223477393542372e-06 0.0000000000000000e+00  -5.9896555964340526e-06 1.0096499069298667e-05 0.0000000000000000e+00  -6.1642886664319230e-06 1.0375560165264239e-05 0.0000000000000000e+00  -6.3481514059174657e-06 1.0664114999391040e-05 0.0000000000000000e+00  -6.5467234571749413e-06 1.0962778978557072e-05 0.0000000000000000e+00  -6.7603084778636285e-06 1.1277968240367776e-05 0.0000000000000000e+00  -7.2364394123034835e-06 1.1938961175702643e-05 0.0000000000000000e+00  -7.5071685792133053e-06 1.2302854806043632e-05 0.0000000000000000e+00  -7.8137985393733022e-06 1.2691312322524652e-05 0.0000000000000000e+00  -8.1697488969937257e-06 1.3142784574231545e-05 0.0000000000000000e+00  -8.5742515665914798e-06 1.3635976043943318e-05 0.0000000000000000e+00  -9.0882595072053484e-06 1.4216004614390959e-05 0.0000000000000000e+00  -9.7274179780817133e-06 1.4993974416350071e-05 0.0000000000000000e+00  -1.0618978185290369e-05 1.5989288783884571e-05 0.0000000000000000e+00  -1.1924360427421598e-05 1.7343572611845245e-05 0.0000000000000000e+00  -1.4142599938037306e-05 1.9706018601050036e-05 0.0000000000000000e+00  -2.0000285614079955e-05 2.5297715928238858e-05 0.0000000000000000e+00  4.1992027704190213e-05 6.9338651614554063e-03 0.0000000000000000e+00  9.1818707005004611e-05 6.9728722330403394e-03 0.0000000000000000e+00  9.7976799972978768e-05 6.9794261135678040e-03 0.0000000000000000e+00  1.0069295378765066e-04 6.9823778699840819e-03 0.0000000000000000e+00  1.0211275181537501e-04 6.9839536083644658e-03 0.0000000000000000e+00  1.0302099866446917e-04 6.9849647146265955e-03 0.0000000000000000e+00  1.0368542315281481e-04 6.9857824092887334e-03 0.0000000000000000e+00  1.0421128006568405e-04 6.9864107887399069e-03 0.0000000000000000e+00  1.0463961276488262e-04 6.9869353980456335e-03 0.0000000000000000e+00  1.0498541585767596e-04 6.9873841791315422e-03 0.0000000000000000e+00  1.0529870729963433e-04 6.9878042338061231e-03 0.0000000000000000e+00  1.0581865864313861e-04 6.9885441059965485e-03 0.0000000000000000e+00  1.0604464045410639e-04 6.9888917710907760e-03 0.0000000000000000e+00  1.0625031760967668e-04 6.9892181474907437e-03 0.0000000000000000e+00  1.0643659398069319e-04 6.9895315539638247e-03 0.0000000000000000e+00  1.0661023117207592e-04 6.9898333533424560e-03 0.0000000000000000e+00  1.0676985256553220e-04 6.9901295138877504e-03 0.0000000000000000e+00  1.0691966797094362e-04 6.9904161136491103e-03 0.0000000000000000e+00  1.0706099145777851e-04 6.9906974105486807e-03 0.0000000000000000e+00  1.0719220353852418e-04 6.9909735208762164e-03 0.0000000000000000e+00  1.0731705833008150e-04 6.9912477535835080e-03 0.0000000000000000e+00  1.0743574986820604e-04 6.9915178988678708e-03 0.0000000000000000e+00  1.0754788397840230e-04 6.9917857626111126e-03 0.0000000000000000e+00  1.0765511690749867e-04 6.9920508712987169e-03 0.0000000000000000e+00  1.0775741429523944e-04 6.9923153481287548e-03 0.0000000000000000e+00  1.0785503349790590e-04 6.9925785497286282e-03 0.0000000000000000e+00  1.0794702965270710e-04 6.9928398938472703e-03 0.0000000000000000e+00  1.0803642534532359e-04 6.9931020896429642e-03 0.0000000000000000e+00  1.0812168806980223e-04 6.9933632056355700e-03 0.0000000000000000e+00  1.0820301112678293e-04 6.9936238176759530e-03 0.0000000000000000e+00  1.0828073615285691e-04 6.9938840604047816e-03 0.0000000000000000e+00  1.0835494210848470e-04 6.9941446159404686e-03 0.0000000000000000e+00  1.0842604583075764e-04 6.9944053550903161e-03 0.0000000000000000e+00  1.0849329943138197e-04 6.9946662832807826e-03 0.0000000000000000e+00  1.0855767177815215e-04 6.9949279428118544e-03 0.0000000000000000e+00  1.0861793545550053e-04 6.9951890151209156e-03 0.0000000000000000e+00  1.0867581495179820e-04 6.9954515608311304e-03 0.0000000000000000e+00  1.0873040086851724e-04 6.9957142578465402e-03 0.0000000000000000e+00  1.0878119736898787e-04 6.9959772618377707e-03 0.0000000000000000e+00  1.0882921236600911e-04 6.9962404741664326e-03 0.0000000000000000e+00  1.0887407687508001e-04 6.9965051760977181e-03 0.0000000000000000e+00  1.0891561206960043e-04 6.9967694313304183e-03 0.0000000000000000e+00  1.0895402083124480e-04 6.9970351756860234e-03 0.0000000000000000e+00  1.0898906796525481e-04 6.9973011933962635e-03 0.0000000000000000e+00  1.0902082503654921e-04 6.9975685676998724e-03 0.0000000000000000e+00  1.0904951560419479e-04 6.9978358270697590e-03 0.0000000000000000e+00  1.0907485597912343e-04 6.9981037606816933e-03 0.0000000000000000e+00  1.0909672951262598e-04 6.9983727694382632e-03 0.0000000000000000e+00  1.0911545364379468e-04 6.9986421273599136e-03 0.0000000000000000e+00  1.0913074285217201e-04 6.9989123409579905e-03 0.0000000000000000e+00  1.0914294507915538e-04 6.9991833388961134e-03 0.0000000000000000e+00  1.0915065914369717e-04 6.9994550164405728e-03 0.0000000000000000e+00  1.0915634574204693e-04 6.9997271503545082e-03 0.0000000000000000e+00  1.0927668014139744e-04 6.9999999999999993e-03 0.0000000000000000e+00  1.0939402552858798e-04 7.0000000000000001e-03 0.0000000000000000e+00  1.0950960743437308e-04 7.0000000000000001e-03 0.0000000000000000e+00  1.0962377523498004e-04 7.0000000000000010e-03 0.0000000000000000e+00  1.0973686887396463e-04 7.0000000000000001e-03 0.0000000000000000e+00  1.0984758658716723e-04 7.0000000000000010e-03 0.0000000000000000e+00  1.0995740573073928e-04 7.0000000000000001e-03 0.0000000000000000e+00  1.1006596092212263e-04 6.9999999999999993e-03 0.0000000000000000e+00  1.1017340310062839e-04 7.0000000000000001e-03 0.0000000000000000e+00  1.1027857579330030e-04 7.0000000000000001e-03 0.0000000000000000e+00  1.1038314152945091e-04 7.0000000000000001e-03 0.0000000000000000e+00  1.1048637171689885e-04 7.0000000000000001e-03 0.0000000000000000e+00  1.1058835189074889e-04 7.0000000000000001e-03 0.0000000000000000e+00  1.1068892343017348e-04 7.0000000000000001e-03 0.0000000000000000e+00  1.1078829788485468e-04 7.0000000000000001e-03 0.0000000000000000e+00  1.1088699674590628e-04 7.0000000000000010e-03 0.0000000000000000e+00  1.1098468770353600e-04 7.0000000000000001e-03 0.0000000000000000e+00  1.1108117672833589e-04 7.0000000000000001e-03 0.0000000000000000e+00  1.1117662244287797e-04 7.0000000000000001e-03 0.0000000000000000e+00  1.1127125414738719e-04 7.0000000000000010e-03 0.0000000000000000e+00  1.1136494946376657e-04 7.0000000000000001e-03 0.0000000000000000e+00  1.1145780723678375e-04 7.0000000000000001e-03 0.0000000000000000e+00  1.1154984030182655e-04 7.0000000000000001e-03 0.0000000000000000e+00  1.1164095984533916e-04 7.0000000000000001e-03 0.0000000000000000e+00  1.1173146228783791e-04 7.0000000000000001e-03 0.0000000000000000e+00  1.1182108323336085e-04 7.0000000000000010e-03 0.0000000000000000e+00  1.1190980866145030e-04 7.0000000000000001e-03 0.0000000000000000e+00  1.1199788885944243e-04 7.0000000000000001e-03 0.0000000000000000e+00  1.1208478076416387e-04 7.0000000000000001e-03 0.0000000000000000e+00  1.1217086404069787e-04 7.0000000000000001e-03 0.0000000000000000e+00  1.1225615532265393e-04 7.0000000000000001e-03 0.0000000000000000e+00  1.1234035203868074e-04 7.0000000000000001e-03 0.0000000000000000e+00  1.1242365405350343e-04 7.0000000000000001e-03 0.0000000000000000e+00  1.1250627392659840e-04 7.0000000000000001e-03 0.0000000000000000e+00  1.1258711481834202e-04 7.0000000000000001e-03 0.0000000000000000e+00  1.1266715025172317e-04 7.0000000000000001e-03 0.0000000000000000e+00  1.1274596229710493e-04 7.0000000000000001e-03 0.0000000000000000e+00  1.1282344788115954e-04 7.0000000000000001e-03 0.0000000000000000e+00  1.1289997774767567e-04 7.0000000000000001e-03 0.0000000000000000e+00  1.1297466805505742e-04 7.0000000000000001e-03 0.0000000000000000e+00  1.1304776758452456e-04 7.0000000000000001e-03 0.0000000000000000e+00  1.1311914957957800e-04 7.0000000000000001e-03 0.0000000000000000e+00  1.1318916502800293e-04 7.0000000000000001e-03 0.0000000000000000e+00  1.1325771341723171e-04 7.0000000000000001e-03 0.0000000000000000e+00  1.1332390670189904e-04 7.0000000000000001e-03 0.0000000000000000e+00  1.1338873679635818e-04 7.0000000000000010e-03 0.0000000000000000e+00  1.1345173592949402e-04 7.0000000000000001e-03 0.0000000000000000e+00  1.1351187923379900e-04 7.0000000000000001e-03 0.0000000000000000e+00  1.1357041627446664e-04 6.9999999999999993e-03 0.0000000000000000e+00  1.1362728128426659e-04 7.0000000000000001e-03 0.0000000000000000e+00  1.1368185298105265e-04 7.0000000000000001e-03 0.0000000000000000e+00  1.1373387716810205e-04 6.9999999999999993e-03 0.0000000000000000e+00  1.1378376983570368e-04 7.0000000000000001e-03 0.0000000000000000e+00  1.1383182559928019e-04 7.0000000000000001e-03 0.0000000000000000e+00  1.1387728790544807e-04 6.9999999999999993e-03 0.0000000000000000e+00  1.1392048143562891e-04 7.0000000000000001e-03 0.0000000000000000e+00  1.1396161935452924e-04 7.0000000000000001e-03 0.0000000000000000e+00  1.1400077883999309e-04 7.0000000000000001e-03 0.0000000000000000e+00  1.1403703392511249e-04 7.0000000000000001e-03 0.0000000000000000e+00  1.1407158546406472e-04 7.0000000000000001e-03 0.0000000000000000e+00  1.1410382124258174e-04 7.0000000000000001e-03 0.0000000000000000e+00  1.1413392037042161e-04 7.0000000000000001e-03 0.0000000000000000e+00  1.1416169050024069e-04 6.9999999999999993e-03 0.0000000000000000e+00  1.1418786367239751e-04 7.0000000000000001e-03 0.0000000000000000e+00  1.1421218258104952e-04 7.0000000000000001e-03 0.0000000000000000e+00  1.1423448012154847e-04 7.0000000000000001e-03 0.0000000000000000e+00  1.1425473182330464e-04