<?xml version="1.0"?>
<VTKFile type="UnstructuredGrid"  version="0.1"  >
<UnstructuredGrid>
<Piece  NumberOfPoints="15540" NumberOfCells="30546">
<Points>
<DataArray  type="Float64"  NumberOfComponents="3"  format="ascii">0 0 0  -0.5 -0.5 0  0.5 -0.5 0  0.5 0 0  0.5 0.5 0  -0.5 0.5 0  -0.5 0.0001 0  -0.5 -0.0001 0  0.5 0.1 0  0.5 -0.1 0  -0.5 -0.1 0  -0.5 0.1 0  -0.4900000000000277 -0.5 0  -0.4800000000000555 -0.5 0  -0.4700000000000832 -0.5 0  -0.4600000000001109 -0.5 0  -0.4500000000001387 -0.5 0  -0.4400000000001664 -0.5 0  -0.4300000000001942 -0.5 0  -0.4200000000002219 -0.5 0  -0.4100000000002497 -0.5 0  -0.4000000000002774 -0.5 0  -0.3900000000003052 -0.5 0  -0.3800000000003328 -0.5 0  -0.3700000000003606 -0.5 0  -0.3600000000003883 -0.5 0  -0.3500000000004161 -0.5 0  -0.3400000000004438 -0.5 0  -0.3300000000004716 -0.5 0  -0.3200000000004993 -0.5 0  -0.3100000000005271 -0.5 0  -0.3000000000005548 -0.5 0  -0.2900000000005825 -0.5 0  -0.2800000000006103 -0.5 0  -0.2700000000006381 -0.5 0  -0.2600000000006658 -0.5 0  -0.2500000000006935 -0.5 0  -0.2400000000007212 -0.5 0  -0.230000000000749 -0.5 0  -0.2200000000007767 -0.5 0  -0.2100000000008044 -0.5 0  -0.2000000000008322 -0.5 0  -0.19000000000086 -0.5 0  -0.1800000000008877 -0.5 0  -0.1700000000009154 -0.5 0  -0.1600000000009431 -0.5 0  -0.1500000000009709 -0.5 0  -0.1400000000009986 -0.5 0  -0.1300000000010264 -0.5 0  -0.1200000000010541 -0.5 0  -0.1100000000010818 -0.5 0  -0.1000000000011096 -0.5 0  -0.09000000000113734 -0.5 0  -0.08000000000116503 -0.5 0  -0.07000000000119283 -0.5 0  -0.06000000000122058 -0.5 0  -0.05000000000124827 -0.5 0  -0.04000000000127607 -0.5 0  -0.03000000000130376 -0.5 0  -0.02000000000133151 -0.5 0  -0.01000000000135925 -0.5 0  -1.376121439022882e-12 -0.5 0  0.009999999998640763 -0.5 0  0.01999999999866864 -0.5 0  0.02999999999869629 -0.5 0  0.03999999999872406 -0.5 0  0.04999999999875182 -0.5 0  0.05999999999877947 -0.5 0  0.06999999999880724 -0.5 0  0.079999999998835 -0.5 0  0.08999999999886266 -0.5 0  0.09999999999889042 -0.5 0  0.1099999999989182 -0.5 0  0.1199999999989459 -0.5 0  0.1299999999989737 -0.5 0  0.1399999999990014 -0.5 0  0.1499999999990291 -0.5 0  0.1599999999990568 -0.5 0  0.1699999999990847 -0.5 0  0.1799999999991124 -0.5 0  0.1899999999991401 -0.5 0  0.1999999999991678 -0.5 0  0.2099999999991955 -0.5 0  0.2199999999992234 -0.5 0  0.2299999999992511 -0.5 0  0.2399999999992788 -0.5 0  0.2499999999993066 -0.5 0  0.2599999999993342 -0.5 0  0.269999999999362 -0.5 0  0.2799999999993897 -0.5 0  0.2899999999994175 -0.5 0  0.2999999999994452 -0.5 0  0.3099999999994729 -0.5 0  0.3199999999995007 -0.5 0  0.3299999999995284 -0.5 0  0.3399999999995562 -0.5 0  0.3499999999995839 -0.5 0  0.3599999999996116 -0.5 0  0.3699999999996393 -0.5 0  0.379999999999667 -0.5 0  0.3899999999996949 -0.5 0  0.3999999999997226 -0.5 0  0.4099999999997503 -0.5 0  0.419999999999778 -0.5 0  0.4299999999998058 -0.5 0  0.4399999999998336 -0.5 0  0.4499999999998613 -0.5 0  0.4599999999998891 -0.5 0  0.4699999999999167 -0.5 0  0.4799999999999445 -0.5 0  0.4899999999999722 -0.5 0  0.5 -0.4902110204681464 0  0.5 -0.4804459958734807 0  0.5 -0.4707048677450883 0  0.5 -0.4609875815766065 0  0.5 -0.4512940759251849 0  0.5 -0.4416242912883993 0  0.5 -0.4319781678689807 0  0.5 -0.4223556545383647 0  0.5 -0.4127566896324213 0  0.5 -0.4031812128200121 0  0.5 -0.3936291733057916 0  0.5 -0.3841005081172659 0  0.5 -0.3745951585781932 0  0.5 -0.3651130778999337 0  0.5 -0.3556541993788045 0  0.5 -0.3462184677228392 0  0.5 -0.3368058273705318 0  0.5 -0.3274162224888609 0  0.5 -0.3180495969712945 0  0.5 -0.3087058944357755 0  0.5 -0.299385058222682 0  0.5 -0.2900870313927414 0  0.5 -0.2808117567250807 0  0.5 -0.2715591844628491 0  0.5 -0.2623292564012653 0  0.5 -0.253121909553727 0  0.5 -0.2439371050851549 0  0.5 -0.2347747685524501 0  0.5 -0.2256348634421331 0  0.5 -0.2165173209784076 0  0.5 -0.207422087829958 0  0.5 -0.1983491207029381 0  0.5 -0.1892983550950482 0  0.5 -0.1802697378305253 0  0.5 -0.1712632154965152 0  0.5 -0.1622787344187354 0  0.5 -0.1533162406595534 0  0.5 -0.1443756800160514 0  0.5 -0.1354569980180493 0  0.5 -0.1265601399261414 0  0.5 -0.1176850622761093 0  0.5 -0.1088317009011999 0  0.5 -0.09166666666668973 0  0.5 -0.08333333333337943 0  0.5 -0.07500000000006915 0  0.5 -0.06666666666675886 0  0.5 -0.05833333333344858 0  0.5 -0.05000000000013693 0  0.5 -0.04166666666678191 0  0.5 -0.03333333333342643 0  0.5 -0.02500000000006916 0  0.5 -0.01666666666671188 0  0.5 -0.00833333333335548 0  0.5 0.008333333333318314 0  0.5 0.01666666666663358 0  0.5 0.02499999999994162 0  0.5 0.03333333333325101 0  0.5 0.04166666666655769 0  0.5 0.04999999999986843 0  0.5 0.05833333333322258 0  0.5 0.06666666666657715 0  0.5 0.07499999999993352 0  0.5 0.08333333333328992 0  0.5 0.09166666666664541 0  0.5 0.1088317009011616 0  0.5 0.1176850622760307 0  0.5 0.1265601399260203 0  0.5 0.1354569980178909 0  0.5 0.1443756800158549 0  0.5 0.153316240659315 0  0.5 0.1622787344184454 0  0.5 0.1712632154961752 0  0.5 0.1802697378301332 0  0.5 0.1892983550946039 0  0.5 0.1983491207024433 0  0.5 0.2074220878294123 0  0.5 0.216517320977811 0  0.5 0.2256348634414833 0  0.5 0.2347747685517479 0  0.5 0.2439371050844009 0  0.5 0.2531219095529224 0  0.5 0.2623292564004089 0  0.5 0.2715591844619371 0  0.5 0.2808117567241139 0  0.5 0.290087031391723 0  0.5 0.2993850582216101 0  0.5 0.3087058944347426 0  0.5 0.3180495969703129 0  0.5 0.3274162224879299 0  0.5 0.3368058273696494 0  0.5 0.3462184677220051 0  0.5 0.3556541993780186 0  0.5 0.3651130778991989 0  0.5 0.3745951585775107 0  0.5 0.3841005081166359 0  0.5 0.3936291733052134 0  0.5 0.4031812128194852 0  0.5 0.412756689631945 0  0.5 0.4223556545379392 0  0.5 0.431978167868607 0  0.5 0.4416242912880781 0  0.5 0.4512940759249164 0  0.5 0.4609875815763912 0  0.5 0.4707048677449264 0  0.5 0.4804459958733726 0  0.5 0.4902110204680924 0  0.4900000000000277 0.5 0  0.4800000000000555 0.5 0  0.4700000000000832 0.5 0  0.4600000000001109 0.5 0  0.4500000000001387 0.5 0  0.4400000000001664 0.5 0  0.4300000000001942 0.5 0  0.4200000000002219 0.5 0  0.4100000000002497 0.5 0  0.4000000000002774 0.5 0  0.3900000000003052 0.5 0  0.3800000000003328 0.5 0  0.3700000000003606 0.5 0  0.3600000000003883 0.5 0  0.3500000000004161 0.5 0  0.3400000000004438 0.5 0  0.3300000000004716 0.5 0  0.3200000000004993 0.5 0  0.3100000000005271 0.5 0  0.3000000000005548 0.5 0  0.2900000000005825 0.5 0  0.2800000000006103 0.5 0  0.2700000000006381 0.5 0  0.2600000000006658 0.5 0  0.2500000000006935 0.5 0  0.2400000000007212 0.5 0  0.230000000000749 0.5 0  0.2200000000007767 0.5 0  0.2100000000008044 0.5 0  0.2000000000008322 0.5 0  0.19000000000086 0.5 0  0.1800000000008877 0.5 0  0.1700000000009154 0.5 0  0.1600000000009431 0.5 0  0.1500000000009709 0.5 0  0.1400000000009986 0.5 0  0.1300000000010264 0.5 0  0.1200000000010541 0.5 0  0.1100000000010818 0.5 0  0.1000000000011096 0.5 0  0.09000000000113734 0.5 0  0.08000000000116503 0.5 0  0.07000000000119283 0.5 0  0.06000000000122058 0.5 0  0.05000000000124827 0.5 0  0.04000000000127607 0.5 0  0.03000000000130376 0.5 0  0.02000000000133151 0.5 0  0.01000000000135925 0.5 0  1.376121439022882e-12 0.5 0  -0.009999999998640763 0.5 0  -0.01999999999866864 0.5 0  -0.02999999999869629 0.5 0  -0.03999999999872406 0.5 0  -0.04999999999875182 0.5 0  -0.05999999999877947 0.5 0  -0.06999999999880724 0.5 0  -0.079999999998835 0.5 0  -0.08999999999886266 0.5 0  -0.09999999999889042 0.5 0  -0.1099999999989182 0.5 0  -0.1199999999989459 0.5 0  -0.1299999999989737 0.5 0  -0.1399999999990014 0.5 0  -0.1499999999990291 0.5 0  -0.1599999999990568 0.5 0  -0.1699999999990847 0.5 0  -0.1799999999991124 0.5 0  -0.1899999999991401 0.5 0  -0.1999999999991678 0.5 0  -0.2099999999991955 0.5 0  -0.2199999999992234 0.5 0  -0.2299999999992511 0.5 0  -0.2399999999992788 0.5 0  -0.2499999999993066 0.5 0  -0.2599999999993342 0.5 0  -0.269999999999362 0.5 0  -0.2799999999993897 0.5 0  -0.2899999999994175 0.5 0  -0.2999999999994452 0.5 0  -0.3099999999994729 0.5 0  -0.3199999999995007 0.5 0  -0.3299999999995284 0.5 0  -0.3399999999995562 0.5 0  -0.3499999999995839 0.5 0  -0.3599999999996116 0.5 0  -0.3699999999996393 0.5 0  -0.379999999999667 0.5 0  -0.3899999999996949 0.5 0  -0.3999999999997226 0.5 0  -0.4099999999997503 0.5 0  -0.419999999999778 0.5 0  -0.4299999999998058 0.5 0  -0.4399999999998336 0.5 0  -0.4499999999998613 0.5 0  -0.4599999999998891 0.5 0  -0.4699999999999167 0.5 0  -0.4799999999999445 0.5 0  -0.4899999999999722 0.5 0  -0.5 0.4902110204681464 0  -0.5 0.4804459958734807 0  -0.5 0.4707048677450883 0  -0.5 0.4609875815766065 0  -0.5 0.4512940759251849 0  -0.5 0.4416242912883993 0  -0.5 0.4319781678689807 0  -0.5 0.4223556545383647 0  -0.5 0.4127566896324213 0  -0.5 0.4031812128200121 0  -0.5 0.3936291733057916 0  -0.5 0.3841005081172659 0  -0.5 0.3745951585781932 0  -0.5 0.3651130778999337 0  -0.5 0.3556541993788045 0  -0.5 0.3462184677228392 0  -0.5 0.3368058273705318 0  -0.5 0.3274162224888609 0  -0.5 0.3180495969712945 0  -0.5 0.3087058944357755 0  -0.5 0.299385058222682 0  -0.5 0.2900870313927414 0  -0.5 0.2808117567250807 0  -0.5 0.2715591844628491 0  -0.5 0.2623292564012653 0  -0.5 0.253121909553727 0  -0.5 0.2439371050851549 0  -0.5 0.2347747685524501 0  -0.5 0.2256348634421331 0  -0.5 0.2165173209784076 0  -0.5 0.207422087829958 0  -0.5 0.1983491207029381 0  -0.5 0.1892983550950482 0  -0.5 0.1802697378305253 0  -0.5 0.1712632154965152 0  -0.5 0.1622787344187354 0  -0.5 0.1533162406595534 0  -0.5 0.1443756800160514 0  -0.5 0.1354569980180493 0  -0.5 0.1265601399261414 0  -0.5 0.1176850622761093 0  -0.5 0.1088317009011999 0  -0.5 0.09167500000001694 0  -0.5 0.08335000000003931 0  -0.5 0.07502500000006167 0  -0.5 0.06670000000008947 0  -0.5 0.05837500000011001 0  -0.5 0.0500500000001328 0  -0.5 0.0417250000001127 0  -0.5 0.03340000000008944 0  -0.5 0.02507500000006573 0  -0.5 0.01675000000004653 0  -0.5 0.008425000000027341 
[...]
<PointData  Vectors="f_20"> 
<DataArray  type="Float64"  Name="f_20"  NumberOfComponents="3" format="ascii">-2.9968276346480197e-04 1.0123447476182777e-03 0.0000000000000000e+00  0.0000000000000000e+00 0.0000000000000000e+00 0.0000000000000000e+00  0.0000000000000000e+00 0.0000000000000000e+00 0.0000000000000000e+00  -5.7166601859239647e-04 1.0540264211352619e-03 0.0000000000000000e+00  -4.1763952185679977e-04 2.1000000000000003e-03 0.0000000000000000e+00  1.4335784686927606e-04 2.1000000000000003e-03 0.0000000000000000e+00  -1.4119634432062413e-04 2.2033425694525021e-03 0.0000000000000000e+00  -1.0972491334637301e-04 -6.0152271851837593e-05 0.0000000000000000e+00  -5.6040448111556549e-04 1.2218645967901410e-03 0.0000000000000000e+00  -5.4104112629343190e-04 8.8993938263673693e-04 0.0000000000000000e+00  -6.4178783374765550e-05 -5.9636366866715436e-05 0.0000000000000000e+00  -6.6921762916317745e-05 2.2030053811702937e-03 0.0000000000000000e+00  0.0000000000000000e+00 0.0000000000000000e+00 0.0000000000000000e+00  0.0000000000000000e+00 0.0000000000000000e+00 0.0000000000000000e+00  0.0000000000000000e+00 0.0000000000000000e+00 0.0000000000000000e+00  0.0000000000000000e+00 0.0000000000000000e+00 0.0000000000000000e+00  0.0000000000000000e+00 0.0000000000000000e+00 0.0000000000000000e+00  0.0000000000000000e+00 0.0000000000000000e+00 0.0000000000000000e+00  0.0000000000000000e+00 0.0000000000000000e+00 0.0000000000000000e+00  0.0000000000000000e+00 0.0000000000000000e+00 0.0000000000000000e+00  0.0000000000000000e+00 0.0000000000000000e+00 0.0000000000000000e+00  0.0000000000000000e+00 0.0000000000000000e+00 0.0000000000000000e+00  0.0000000000000000e+00 0.0000000000000000e+00 0.0000000000000000e+00  0.0000000000000000e+00 0.0000000000000000e+00 0.0000000000000000e+00  0.0000000000000000e+00 0.0000000000000000e+00 0.0000000000000000e+00  0.0000000000000000e+00 0.0000000000000000e+00 0.0000000000000000e+00  0.0000000000000000e+00 0.0000000000000000e+00 0.0000000000000000e+00  0.0000000000000000e+00 0.0000000000000000e+00 0.0000000000000000e+00  0.0000000000000000e+00 0.0000000000000000e+00 0.0000000000000000e+00  0.0000000000000000e+00 0.0000000000000000e+00 0.0000000000000000e+00  0.0000000000000000e+00 0.0000000000000000e+00 0.0000000000000000e+00  0.0000000000000000e+00 0.0000000000000000e+00 0.0000000000000000e+00  0.0000000000000000e+00 0.0000000000000000e+00 0.0000000000000000e+00  0.0000000000000000e+00 0.0000000000000000e+00 0.0000000000000000e+00  0.0000000000000000e+00 0.0000000000000000e+00 0.0000000000000000e+00  0.0000000000000000e+00 0.0000000000000000e+00 0.0000000000000000e+00  0.0000000000000000e+00 0.0000000000000000e+00 0.0000000000000000e+00  0.0000000000000000e+00 0.0000000000000000e+00 0.0000000000000000e+00  0.0000000000000000e+00 0.0000000000000000e+00 0.0000000000000000e+00  0.0000000000000000e+00 0.0000000000000000e+00 0.0000000000000000e+00  0.0000000000000000e+00 0.0000000000000000e+00 0.0000000000000000e+00  0.0000000000000000e+00 0.0000000000000000e+00 0.0000000000000000e+00  0.0000000000000000e+00 0.0000000000000000e+00 0.0000000000000000e+00  0.0000000000000000e+00 0.0000000000000000e+00 0.0000000000000000e+00  0.0000000000000000e+00 0.0000000000000000e+00 0.0000000000000000e+00  0.0000000000000000e+00 0.0000000000000000e+00 0.0000000000000000e+00  0.0000000000000000e+00 0.0000000000000000e+00 0.0000000000000000e+00  0.0000000000000000e+00 0.0000000000000000e+00 0.0000000000000000e+00  0.0000000000000000e+00 0.0000000000000000e+00 0.0000000000000000e+00  0.0000000000000000e+00 0.0000000000000000e+00 0.0000000000000000e+00  0.0000000000000000e+00 0.0000000000000000e+00 0.0000000000000000e+00  0.0000000000000000e+00 0.0000000000000000e+00 0.0000000000000000e+00  0.0000000000000000e+00 0.0000000000000000e+00 0.0000000000000000e+00  0.0000000000000000e+00 0.0000000000000000e+00 0.0000000000000000e+00  0.0000000000000000e+00 0.0000000000000000e+00 0.0000000000000000e+00  0.0000000000000000e+00 0.0000000000000000e+00 0.0000000000000000e+00  0.0000000000000000e+00 0.0000000000000000e+00 0.0000000000000000e+00  0.0000000000000000e+00 0.0000000000000000e+00 0.0000000000000000e+00  0.0000000000000000e+00 0.0000000000000000e+00 0.0000000000000000e+00  0.0000000000000000e+00 0.0000000000000000e+00 0.0000000000000000e+00  0.0000000000000000e+00 0.0000000000000000e+00 0.0000000000000000e+00  0.0000000000000000e+00 0.0000000000000000e+00 0.0000000000000000e+00  0.0000000000000000e+00 0.0000000000000000e+00 0.0000000000000000e+00  0.0000000000000000e+00 0.0000000000000000e+00 0.0000000000000000e+00  0.0000000000000000e+00 0.0000000000000000e+00 0.0000000000000000e+00  0.0000000000000000e+00 0.0000000000000000e+00 0.0000000000000000e+00  0.0000000000000000e+00 0.0000000000000000e+00 0.0000000000000000e+00  0.0000000000000000e+00 0.0000000000000000e+00 0.0000000000000000e+00  0.0000000000000000e+00 0.0000000000000000e+00 0.0000000000000000e+00  0.0000000000000000e+00 0.0000000000000000e+00 0.0000000000000000e+00  0.0000000000000000e+00 0.0000000000000000e+00 0.0000000000000000e+00  0.0000000000000000e+00 0.0000000000000000e+00 0.0000000000000000e+00  0.0000000000000000e+00 0.0000000000000000e+00 0.0000000000000000e+00  0.0000000000000000e+00 0.0000000000000000e+00 0.0000000000000000e+00  0.0000000000000000e+00 0.0000000000000000e+00 0.0000000000000000e+00  0.0000000000000000e+00 0.0000000000000000e+00 0.0000000000000000e+00  0.0000000000000000e+00 0.0000000000000000e+00 0.0000000000000000e+00  0.0000000000000000e+00 0.0000000000000000e+00 0.0000000000000000e+00  0.0000000000000000e+00 0.0000000000000000e+00 0.0000000000000000e+00  0.0000000000000000e+00 0.0000000000000000e+00 0.0000000000000000e+00  0.0000000000000000e+00 0.0000000000000000e+00 0.0000000000000000e+00  0.0000000000000000e+00 0.0000000000000000e+00 0.0000000000000000e+00  0.0000000000000000e+00 0.0000000000000000e+00 0.0000000000000000e+00  0.0000000000000000e+00 0.0000000000000000e+00 0.0000000000000000e+00  0.0000000000000000e+00 0.0000000000000000e+00 0.0000000000000000e+00  0.0000000000000000e+00 0.0000000000000000e+00 0.0000000000000000e+00  0.0000000000000000e+00 0.0000000000000000e+00 0.0000000000000000e+00  0.0000000000000000e+00 0.0000000000000000e+00 0.0000000000000000e+00  0.0000000000000000e+00 0.0000000000000000e+00 0.0000000000000000e+00  0.0000000000000000e+00 0.0000000000000000e+00 0.0000000000000000e+00  0.0000000000000000e+00 0.0000000000000000e+00 0.0000000000000000e+00  0.0000000000000000e+00 0.0000000000000000e+00 0.0000000000000000e+00  0.0000000000000000e+00 0.0000000000000000e+00 0.0000000000000000e+00  0.0000000000000000e+00 0.0000000000000000e+00 0.0000000000000000e+00  0.0000000000000000e+00 0.0000000000000000e+00 0.0000000000000000e+00  0.0000000000000000e+00 0.0000000000000000e+00 0.0000000000000000e+00  0.0000000000000000e+00 0.0000000000000000e+00 0.0000000000000000e+00  0.0000000000000000e+00 0.0000000000000000e+00 0.0000000000000000e+00  0.0000000000000000e+00 0.0000000000000000e+00 0.0000000000000000e+00  0.0000000000000000e+00 0.0000000000000000e+00 0.0000000000000000e+00  0.0000000000000000e+00 0.0000000000000000e+00 0.0000000000000000e+00  0.0000000000000000e+00 0.0000000000000000e+00 0.0000000000000000e+00  0.0000000000000000e+00 0.0000000000000000e+00 0.0000000000000000e+00  0.0000000000000000e+00 0.0000000000000000e+00 0.0000000000000000e+00  0.0000000000000000e+00 0.0000000000000000e+00 0.0000000000000000e+00  0.0000000000000000e+00 0.0000000000000000e+00 0.0000000000000000e+00  0.0000000000000000e+00 0.0000000000000000e+00 0.0000000000000000e+00  0.0000000000000000e+00 0.0000000000000000e+00 0.0000000000000000e+00  0.0000000000000000e+00 0.0000000000000000e+00 0.0000000000000000e+00  0.0000000000000000e+00 0.0000000000000000e+00 0.0000000000000000e+00  0.0000000000000000e+00 0.0000000000000000e+00 0.0000000000000000e+00  -5.0659409383989928e-05 5.2639366648197374e-05 0.0000000000000000e+00  -8.3747808559656400e-05 9.0714607478963169e-05 0.0000000000000000e+00  -1.1095150172259902e-04 1.2301836789605424e-04 0.0000000000000000e+00  -1.3498386671999686e-04 1.5213366522990010e-04 0.0000000000000000e+00  -1.5658072043149169e-04 1.7902000380577693e-04 0.0000000000000000e+00  -1.7640643473968711e-04 2.0442895405743517e-04 0.0000000000000000e+00  -1.9500274992587173e-04 2.2871942653092113e-04 0.0000000000000000e+00  -2.1210896230588463e-04 2.5224114378572025e-04 0.0000000000000000e+00  -2.2817714381278788e-04 2.7513009223997868e-04 0.0000000000000000e+00  -2.4355144805975992e-04 2.9739121620856964e-04 0.0000000000000000e+00  -2.5807315514948375e-04 3.1928464212401967e-04 0.0000000000000000e+00  -2.7199082499998603e-04 3.4066983893131779e-04 0.0000000000000000e+00  -2.8521575062760306e-04 3.6184385635662020e-04 0.0000000000000000e+00  -2.9802580968581269e-04 3.8256110908589761e-04 0.0000000000000000e+00  -3.1032894014950367e-04 4.0310601209107692e-04 0.0000000000000000e+00  -3.2231899541665171e-04 4.2332404917288575e-04 0.0000000000000000e+00  -3.3381344458455046e-04 4.4330043027923790e-04 0.0000000000000000e+00  -3.4498622524255354e-04 4.6298858399567219e-04 0.0000000000000000e+00  -3.5590042759200329e-04 4.8253725657685384e-04 0.0000000000000000e+00  -3.6645186043177884e-04 5.0179318809284344e-04 0.0000000000000000e+00  -3.7672748895941130e-04 5.2085567315568741e-04 0.0000000000000000e+00  -3.8673647528627962e-04 5.3972808218638330e-04 0.0000000000000000e+00  -3.9650222402089262e-04 5.5838001547902152e-04 0.0000000000000000e+00  -4.0601893963226833e-04 5.7683778327183354e-04 0.0000000000000000e+00  -4.1529956030715516e-04 5.9506745634541460e-04 0.0000000000000000e+00  -4.2434421092634334e-04 6.1308704664451996e-04 0.0000000000000000e+00  -4.3316743294431758e-04 6.3086426841776672e-04 0.0000000000000000e+00  -4.4181905847837235e-04 6.4852394438771183e-04 0.0000000000000000e+00  -4.5016915517791218e-04 6.6594957376498376e-04 0.0000000000000000e+00  -4.5828765180893071e-04 6.8316879647581223e-04 0.0000000000000000e+00  -4.6618314397518595e-04 7.0021401590972807e-04 0.0000000000000000e+00  -4.7386968467388136e-04 7.1703021474336232e-04 0.0000000000000000e+00  -4.8128310556445404e-04 7.3365554878191254e-04 0.0000000000000000e+00  -4.8848153861990630e-04 7.5005498832107309e-04 0.0000000000000000e+00  -4.9543019854780379e-04 7.6631819371699469e-04 0.0000000000000000e+00  -5.0208088926868171e-04 7.8238300221310231e-04 0.0000000000000000e+00  -5.0848305096430374e-04 7.9826818573832000e-04 0.0000000000000000e+00  -5.1464152030805969e-04 8.1391791501249724e-04 0.0000000000000000e+00  -5.2047773596216348e-04 8.2945116267352475e-04 0.0000000000000000e+00  -5.2607218906630161e-04 8.4479708254363729e-04 0.0000000000000000e+00  -5.3134590985834699e-04 8.6001671433487143e-04 0.0000000000000000e+00  -5.3634159213045965e-04 8.7502441253503864e-04 0.0000000000000000e+00  -5.4515712896169972e-04 9.0389838446619682e-04 0.0000000000000000e+00  -5.4902752699082001e-04 9.1774167291323676e-04 0.0000000000000000e+00  -5.5260447811196457e-04 9.3157154722184972e-04 0.0000000000000000e+00  -5.5591008348056584e-04 9.4527214409824813e-04 0.0000000000000000e+00  -5.5894184351685942e-04 9.5898665523370204e-04 0.0000000000000000e+00  -5.6164008347671303e-04 9.7266755525892280e-04 0.0000000000000000e+00  -5.6407363673259829e-04 9.8622632519830165e-04 0.0000000000000000e+00  -5.6619956166275068e-04 9.9979500503450704e-04 0.0000000000000000e+00  -5.6802957206778719e-04 1.0133640542079421e-03 0.0000000000000000e+00  -5.6950552278731484e-04 1.0269449945091130e-03 0.0000000000000000e+00  -5.7073792746648966e-04 1.0404617177363843e-03 0.0000000000000000e+00  -5.7225130566270377e-04 1.0676151352432463e-03 0.0000000000000000e+00  -5.7255382630272942e-04 1.0812218066386845e-03 0.0000000000000000e+00  -5.7257280731179893e-04 1.0949260689519015e-03 0.0000000000000000e+00  -5.7229455514387867e-04 1.1086230208078056e-03 0.0000000000000000e+00  -5.7173969690454182e-04 1.1224511474332475e-03 0.0000000000000000e+00  -5.7089539989850675e-04 1.1363707923738291e-03 0.0000000000000000e+00  -5.6975643181467227e-04 1.1503110445411097e-03 0.0000000000000000e+00  -5.6838651740826786e-04 1.1643966633316379e-03 0.0000000000000000e+00  -5.6677427490082230e-04 1.1786049679397643e-03 0.0000000000000000e+00  -5.6485292398802739e-04 1.1929238491675432e-03 0.0000000000000000e+00  -5.6274220216744942e-04 1.2073071179347660e-03 0.0000000000000000e+00  -5.5766371799187658e-04 1.2374708440848700e-03 0.0000000000000000e+00  -5.5468964747016063e-04 1.2532486126477322e-03 0.0000000000000000e+00  -5.5150922892388857e-04 1.2692907631806178e-03 0.0000000000000000e+00  -5.4809800542804995e-04 1.2855130571468073e-03 0.0000000000000000e+00  -5.4455501387748895e-04 1.3019890919933757e-03 0.0000000000000000e+00  -5.4076655870806953e-04 1.3186597517222392e-03 0.0000000000000000e+00  -5.3685113194318920e-04 1.3356121546875745e-03 0.0000000000000000e+00  -5.3277456875108612e-04 1.3528190699106930e-03 0.0000000000000000e+00  -5.2856878963922769e-04 1.3702835866015956e-03 0.0000000000000000e+00  -5.2421721173663669e-04 1.3879712156841925e-03 0.0000000000000000e+00  -5.1981938507039834e-04 1.4059351760968681e-03 0.0000000000000000e+00  -5.1530965141754819e-04 1.4241569375871711e-03 0.0000000000000000e+00  -5.1075891291118549e-04 1.4426451244055007e-03 0.0000000000000000e+00  -5.0616801675854365e-04 1.4614036717252071e-03 0.0000000000000000e+00  -5.0153922375768280e-04 1.4804302074364378e-03 0.0000000000000000e+00  -4.9687174593819106e-04 1.4997047954072929e-03 0.0000000000000000e+00  -4.9220719148855400e-04 1.5192136782417457e-03 0.0000000000000000e+00  -4.8759124544436974e-04 1.5389951633427545e-03 0.0000000000000000e+00  -4.8301705563763493e-04 1.5590209727334421e-03 0.0000000000000000e+00  -4.7849015758907648e-04 1.5793011238414828e-03 0.0000000000000000e+00  -4.7403110207464878e-04 1.5998397053871942e-03 0.0000000000000000e+00  -4.6962762824212517e-04 1.6206310374420512e-03 0.0000000000000000e+00  -4.6536844333362461e-04 1.6416287579010230e-03 0.0000000000000000e+00  -4.6117892575345032e-04 1.6628820738143351e-03 0.0000000000000000e+00  -4.5714842550427477e-04 1.6843269773605927e-03 0.0000000000000000e+00  -4.5323091863014547e-04 1.7060173505204276e-03 0.0000000000000000e+00  -4.4946704613490519e-04 1.7279212464334733e-03 0.0000000000000000e+00  -4.4587222314903082e-04 1.7499909552019365e-03 0.0000000000000000e+00  -4.4245684698821278e-04 1.7722566588219775e-03 0.0000000000000000e+00  -4.3920094923624586e-04 1.7947505340118613e-03 0.0000000000000000e+00  -4.3618066828875071e-04 1.8173626101842515e-03 0.0000000000000000e+00  -4.3332208157510998e-04 1.8401898898781572e-03 0.0000000000000000e+00  -4.3069869425256589e-04 1.8631685725452967e-03 0.0000000000000000e+00  -4.2828870689192513e-04 1.8863517234273734e-03 0.0000000000000000e+00  -4.2611222670336553e-04 1.9096168004492683e-03 0.0000000000000000e+00  -4.2416349885394651e-04 1.9330182931158414e-03 0.0000000000000000e+00  -4.2246946094154299e-04 1.9565808895900100e-03 0.0000000000000000e+00  -4.2102272470059571e-04 1.9802342361747586e-03 0.0000000000000000e+00  -4.1983346602174739e-04 2.0040114276319377e-03 0.0000000000000000e+00  -4.1887569192735187e-04 2.0278946222706176e-03 0.0000000000000000e+00  -4.1826588082715229e-04 2.0518640643308870e-03 0.0000000000000000e+00  -4.1781943492007201e-04 2.0758938683591312e-03 0.0000000000000000e+00  -4.0719225080382911e-04 2.1000000000000003e-03 0.0000000000000000e+00  -3.9678256553978740e-04 2.1000000000000003e-03 0.0000000000000000e+00  -3.8647693477801006e-04 2.1000000000000003e-03 0.0000000000000000e+00  -3.7623305340911878e-04 2.1000000000000003e-03 0.0000000000000000e+00  -3.6601914631565141e-04 2.1000000000000003e-03 0.0000000000000000e+00  -3.5590264856948323e-04 2.1000000000000003e-03 0.0000000000000000e+00  -3.4578339459916666e-04 2.1000000000000003e-03 0.0000000000000000e+00  -3.3567412337809306e-04 2.1000000000000003e-03 0.0000000000000000e+00  -3.2555466361885408e-04 2.1000000000000003e-03 0.0000000000000000e+00  -3.1548637549493427e-04 2.1000000000000003e-03 0.0000000000000000e+00  -3.0538011587077484e-04 2.1000000000000003e-03 0.0000000000000000e+00  -2.9525917176903755e-04 2.1000000000000003e-03 0.0000000000000000e+00  -2.8511896719880087e-04 2.1000000000000003e-03 0.0000000000000000e+00  -2.7496007161347100e-04 2.1000000000000003e-03 0.0000000000000000e+00  -2.6477815958178942e-04 2.1000000000000003e-03 0.0000000000000000e+00  -2.5455313272343860e-04 2.1000000000000003e-03 0.0000000000000000e+00  -2.4429868210869922e-04 2.1000000000000003e-03 0.0000000000000000e+00  -2.3401625694669781e-04 2.1000000000000003e-03 0.0000000000000000e+00  -2.2370519469574988e-04 2.1000000000000003e-03 0.0000000000000000e+00  -2.1336723558755950e-04 2.1000000000000003e-03 0.0000000000000000e+00  -2.0300433497678541e-04 2.1000000000000003e-03 0.0000000000000000e+00  -1.9261811243635868e-04 2.1000000000000003e-03 0.0000000000000000e+00  -1.8221538431286474e-04 2.1000000000000003e-03 0.0000000000000000e+00  -1.7180757515718615e-04 2.1000000000000003e-03 0.0000000000000000e+00  -1.6138326764208200e-04 2.1000000000000003e-03 0.0000000000000000e+00  -1.5096458386198877e-04 2.1000000000000003e-03 0.0000000000000000e+00  -1.4056346212919560e-04 2.1000000000000003e-03 0.0000000000000000e+00  -1.3017068390804520e-04 2.1000000000000003e-03 0.0000000000000000e+00  -1.1983160097430251e-04 2.1000000000000003e-03 0.0000000000000000e+00  -1.0952974282863477e-04 2.1000000000000003e-03 0.0000000000000000e+00  -9.9270900729220624e-05 2.1000000000000003e-03 0.0000000000000000e+00  -8.9087867701743447e-05 2.1000000000000003e-03 0.0000000000000000e+00  -7.8974775850887665e-05 2.1000000000000003e-03 0.0000000000000000e+00  -6.8920375333149310e-05 2.1000000000000003e-03 0.0000000000000000e+00  -5.9025428494681345e-05 2.1000000000000003e-03 0.0000000000000000e+00  -4.9217157582537690e-05 2.1000000000000003e-03 0.0000000000000000e+00  -3.9539520467437854e-05 2.1000000000000003e-03 0.0000000000000000e+00  -3.0007641921613903e-05 2.1000000000000003e-03 0.0000000000000000e+00  -2.0593300090232477e-05 2.1000000000000003e-03 0.0000000000000000e+00  -1.1383436420908453e-05 2.1000000000000003e-03 0.0000000000000000e+00  -2.3662660297193652e-06 2.1000000000000003e-03 0.0000000000000000e+00  6.4388541719550095e-06 2.1000000000000003e-03 0.0000000000000000e+00  1.5066013745567914e-05 2.1000000000000003e-03 0.0000000000000000e+00  2.3506157022651407e-05 2.1000000000000003e-03 0.0000000000000000e+00  3.1653479664419976e-05 2.1000000000000003e-03 0.0000000000000000e+00  3.9616856827295111e-05 2.1000000000000003e-03 0.0000000000000000e+00  4.7338144377601129e-05 2.1000000000000003e-03 0.0000000000000000e+00  5.4710793416433630e-05 2.1000000000000003e-03 0.0000000000000000e+00  6.1865952886183998e-05 2.1000000000000003e-03 0.0000000000000000e+00  6.8796540866663926e-05 2.1000000000000003e-03 0.0000000000000000e+00  7.5433721502905944e-05 2.1000000000000003e-03 0.0000000000000000e+00  8.1745583796822676e-05 2.1000000000000003e-03 0.0000000000000000e+00  8.7780080721725111e-05 2.1000000000000003e-03 0.0000000000000000e+00  9.3568999567657021e-05 2.1000000000000003e-03 0.0000000000000000e+00  9.9037062835306058e-05 2.1000000000000003e-03 0.0000000000000000e+00  1.0421026577787651e-04 2.1000000000000003e-03 0.0000000000000000e+00  1.0912106149264039e-04 2.1000000000000003e-03 0.0000000000000000e+00  1.1377687881629097e-04 2.1000000000000003e-03 0.0000000000000000e+00  1.1807085384387215e-04 2.1000000000000003e-03 0.0000000000000000e+00  1.2214770456533614e-04 2.1000000000000003e-03 0.0000000000000000e+00  1.2593518776065629e-04 2.1000000000000003e-03 0.0000000000000000e+00  1.2945688257322630e-04 2.1000000000000003e-03 0.0000000000000000e+00  1.3269018870075810e-04 2.1000000000000003e-03 0.0000000000000000e+00  1.3572440666480252e-04 2.1000000000000003e-03 0.0000000000000000e+00  1.3852962101387311e-04 2.1000000000000003e-03 0.0000000000000000