<?xml version="1.0"?>
<VTKFile type="UnstructuredGrid"  version="0.1"  >
<UnstructuredGrid>
<Piece  NumberOfPoints="15540" NumberOfCells="30546">
<Points>
<DataArray  type="Float64"  NumberOfComponents="3"  format="ascii">0 0 0  -0.5 -0.5 0  0.5 -0.5 0  0.5 0 0  0.5 0.5 0  -0.5 0.5 0  -0.5 0.0001 0  -0.5 -0.0001 0  0.5 0.1 0  0.5 -0.1 0  -0.5 -0.1 0  -0.5 0.1 0  -0.4900000000000277 -0.5 0  -0.4800000000000555 -0.5 0  -0.4700000000000832 -0.5 0  -0.4600000000001109 -0.5 0  -0.4500000000001387 -0.5 0  -0.4400000000001664 -0.5 0  -0.4300000000001942 -0.5 0  -0.4200000000002219 -0.5 0  -0.4100000000002497 -0.5 0  -0.4000000000002774 -0.5 0  -0.3900000000003052 -0.5 0  -0.3800000000003328 -0.5 0  -0.3700000000003606 -0.5 0  -0.3600000000003883 -0.5 0  -0.3500000000004161 -0.5 0  -0.3400000000004438 -0.5 0  -0.3300000000004716 -0.5 0  -0.3200000000004993 -0.5 0  -0.3100000000005271 -0.5 0  -0.3000000000005548 -0.5 0  -0.2900000000005825 -0.5 0  -0.2800000000006103 -0.5 0  -0.2700000000006381 -0.5 0  -0.2600000000006658 -0.5 0  -0.2500000000006935 -0.5 0  -0.2400000000007212 -0.5 0  -0.230000000000749 -0.5 0  -0.2200000000007767 -0.5 0  -0.2100000000008044 -0.5 0  -0.2000000000008322 -0.5 0  -0.19000000000086 -0.5 0  -0.1800000000008877 -0.5 0  -0.1700000000009154 -0.5 0  -0.1600000000009431 -0.5 0  -0.1500000000009709 -0.5 0  -0.1400000000009986 -0.5 0  -0.1300000000010264 -0.5 0  -0.1200000000010541 -0.5 0  -0.1100000000010818 -0.5 0  -0.1000000000011096 -0.5 0  -0.09000000000113734 -0.5 0  -0.08000000000116503 -0.5 0  -0.07000000000119283 -0.5 0  -0.06000000000122058 -0.5 0  -0.05000000000124827 -0.5 0  -0.04000000000127607 -0.5 0  -0.03000000000130376 -0.5 0  -0.02000000000133151 -0.5 0  -0.01000000000135925 -0.5 0  -1.376121439022882e-12 -0.5 0  0.009999999998640763 -0.5 0  0.01999999999866864 -0.5 0  0.02999999999869629 -0.5 0  0.03999999999872406 -0.5 0  0.04999999999875182 -0.5 0  0.05999999999877947 -0.5 0  0.06999999999880724 -0.5 0  0.079999999998835 -0.5 0  0.08999999999886266 -0.5 0  0.09999999999889042 -0.5 0  0.1099999999989182 -0.5 0  0.1199999999989459 -0.5 0  0.1299999999989737 -0.5 0  0.1399999999990014 -0.5 0  0.1499999999990291 -0.5 0  0.1599999999990568 -0.5 0  0.1699999999990847 -0.5 0  0.1799999999991124 -0.5 0  0.1899999999991401 -0.5 0  0.1999999999991678 -0.5 0  0.2099999999991955 -0.5 0  0.2199999999992234 -0.5 0  0.2299999999992511 -0.5 0  0.2399999999992788 -0.5 0  0.2499999999993066 -0.5 0  0.2599999999993342 -0.5 0  0.269999999999362 -0.5 0  0.2799999999993897 -0.5 0  0.2899999999994175 -0.5 0  0.2999999999994452 -0.5 0  0.3099999999994729 -0.5 0  0.3199999999995007 -0.5 0  0.3299999999995284 -0.5 0  0.3399999999995562 -0.5 0  0.3499999999995839 -0.5 0  0.3599999999996116 -0.5 0  0.3699999999996393 -0.5 0  0.379999999999667 -0.5 0  0.3899999999996949 -0.5 0  0.3999999999997226 -0.5 0  0.4099999999997503 -0.5 0  0.419999999999778 -0.5 0  0.4299999999998058 -0.5 0  0.4399999999998336 -0.5 0  0.4499999999998613 -0.5 0  0.4599999999998891 -0.5 0  0.4699999999999167 -0.5 0  0.4799999999999445 -0.5 0  0.4899999999999722 -0.5 0  0.5 -0.4902110204681464 0  0.5 -0.4804459958734807 0  0.5 -0.4707048677450883 0  0.5 -0.4609875815766065 0  0.5 -0.4512940759251849 0  0.5 -0.4416242912883993 0  0.5 -0.4319781678689807 0  0.5 -0.4223556545383647 0  0.5 -0.4127566896324213 0  0.5 -0.4031812128200121 0  0.5 -0.3936291733057916 0  0.5 -0.3841005081172659 0  0.5 -0.3745951585781932 0  0.5 -0.3651130778999337 0  0.5 -0.3556541993788045 0  0.5 -0.3462184677228392 0  0.5 -0.3368058273705318 0  0.5 -0.3274162224888609 0  0.5 -0.3180495969712945 0  0.5 -0.3087058944357755 0  0.5 -0.299385058222682 0  0.5 -0.2900870313927414 0  0.5 -0.2808117567250807 0  0.5 -0.2715591844628491 0  0.5 -0.2623292564012653 0  0.5 -0.253121909553727 0  0.5 -0.2439371050851549 0  0.5 -0.2347747685524501 0  0.5 -0.2256348634421331 0  0.5 -0.2165173209784076 0  0.5 -0.207422087829958 0  0.5 -0.1983491207029381 0  0.5 -0.1892983550950482 0  0.5 -0.1802697378305253 0  0.5 -0.1712632154965152 0  0.5 -0.1622787344187354 0  0.5 -0.1533162406595534 0  0.5 -0.1443756800160514 0  0.5 -0.1354569980180493 0  0.5 -0.1265601399261414 0  0.5 -0.1176850622761093 0  0.5 -0.1088317009011999 0  0.5 -0.09166666666668973 0  0.5 -0.08333333333337943 0  0.5 -0.07500000000006915 0  0.5 -0.06666666666675886 0  0.5 -0.05833333333344858 0  0.5 -0.05000000000013693 0  0.5 -0.04166666666678191 0  0.5 -0.03333333333342643 0  0.5 -0.02500000000006916 0  0.5 -0.01666666666671188 0  0.5 -0.00833333333335548 0  0.5 0.008333333333318314 0  0.5 0.01666666666663358 0  0.5 0.02499999999994162 0  0.5 0.03333333333325101 0  0.5 0.04166666666655769 0  0.5 0.04999999999986843 0  0.5 0.05833333333322258 0  0.5 0.06666666666657715 0  0.5 0.07499999999993352 0  0.5 0.08333333333328992 0  0.5 0.09166666666664541 0  0.5 0.1088317009011616 0  0.5 0.1176850622760307 0  0.5 0.1265601399260203 0  0.5 0.1354569980178909 0  0.5 0.1443756800158549 0  0.5 0.153316240659315 0  0.5 0.1622787344184454 0  0.5 0.1712632154961752 0  0.5 0.1802697378301332 0  0.5 0.1892983550946039 0  0.5 0.1983491207024433 0  0.5 0.2074220878294123 0  0.5 0.216517320977811 0  0.5 0.2256348634414833 0  0.5 0.2347747685517479 0  0.5 0.2439371050844009 0  0.5 0.2531219095529224 0  0.5 0.2623292564004089 0  0.5 0.2715591844619371 0  0.5 0.2808117567241139 0  0.5 0.290087031391723 0  0.5 0.2993850582216101 0  0.5 0.3087058944347426 0  0.5 0.3180495969703129 0  0.5 0.3274162224879299 0  0.5 0.3368058273696494 0  0.5 0.3462184677220051 0  0.5 0.3556541993780186 0  0.5 0.3651130778991989 0  0.5 0.3745951585775107 0  0.5 0.3841005081166359 0  0.5 0.3936291733052134 0  0.5 0.4031812128194852 0  0.5 0.412756689631945 0  0.5 0.4223556545379392 0  0.5 0.431978167868607 0  0.5 0.4416242912880781 0  0.5 0.4512940759249164 0  0.5 0.4609875815763912 0  0.5 0.4707048677449264 0  0.5 0.4804459958733726 0  0.5 0.4902110204680924 0  0.4900000000000277 0.5 0  0.4800000000000555 0.5 0  0.4700000000000832 0.5 0  0.4600000000001109 0.5 0  0.4500000000001387 0.5 0  0.4400000000001664 0.5 0  0.4300000000001942 0.5 0  0.4200000000002219 0.5 0  0.4100000000002497 0.5 0  0.4000000000002774 0.5 0  0.3900000000003052 0.5 0  0.3800000000003328 0.5 0  0.3700000000003606 0.5 0  0.3600000000003883 0.5 0  0.3500000000004161 0.5 0  0.3400000000004438 0.5 0  0.3300000000004716 0.5 0  0.3200000000004993 0.5 0  0.3100000000005271 0.5 0  0.3000000000005548 0.5 0  0.2900000000005825 0.5 0  0.2800000000006103 0.5 0  0.2700000000006381 0.5 0  0.2600000000006658 0.5 0  0.2500000000006935 0.5 0  0.2400000000007212 0.5 0  0.230000000000749 0.5 0  0.2200000000007767 0.5 0  0.2100000000008044 0.5 0  0.2000000000008322 0.5 0  0.19000000000086 0.5 0  0.1800000000008877 0.5 0  0.1700000000009154 0.5 0  0.1600000000009431 0.5 0  0.1500000000009709 0.5 0  0.1400000000009986 0.5 0  0.1300000000010264 0.5 0  0.1200000000010541 0.5 0  0.1100000000010818 0.5 0  0.1000000000011096 0.5 0  0.09000000000113734 0.5 0  0.08000000000116503 0.5 0  0.07000000000119283 0.5 0  0.06000000000122058 0.5 0  0.05000000000124827 0.5 0  0.04000000000127607 0.5 0  0.03000000000130376 0.5 0  0.02000000000133151 0.5 0  0.01000000000135925 0.5 0  1.376121439022882e-12 0.5 0  -0.009999999998640763 0.5 0  -0.01999999999866864 0.5 0  -0.02999999999869629 0.5 0  -0.03999999999872406 0.5 0  -0.04999999999875182 0.5 0  -0.05999999999877947 0.5 0  -0.06999999999880724 0.5 0  -0.079999999998835 0.5 0  -0.08999999999886266 0.5 0  -0.09999999999889042 0.5 0  -0.1099999999989182 0.5 0  -0.1199999999989459 0.5 0  -0.1299999999989737 0.5 0  -0.1399999999990014 0.5 0  -0.1499999999990291 0.5 0  -0.1599999999990568 0.5 0  -0.1699999999990847 0.5 0  -0.1799999999991124 0.5 0  -0.1899999999991401 0.5 0  -0.1999999999991678 0.5 0  -0.2099999999991955 0.5 0  -0.2199999999992234 0.5 0  -0.2299999999992511 0.5 0  -0.2399999999992788 0.5 0  -0.2499999999993066 0.5 0  -0.2599999999993342 0.5 0  -0.269999999999362 0.5 0  -0.2799999999993897 0.5 0  -0.2899999999994175 0.5 0  -0.2999999999994452 0.5 0  -0.3099999999994729 0.5 0  -0.3199999999995007 0.5 0  -0.3299999999995284 0.5 0  -0.3399999999995562 0.5 0  -0.3499999999995839 0.5 0  -0.3599999999996116 0.5 0  -0.3699999999996393 0.5 0  -0.379999999999667 0.5 0  -0.3899999999996949 0.5 0  -0.3999999999997226 0.5 0  -0.4099999999997503 0.5 0  -0.419999999999778 0.5 0  -0.4299999999998058 0.5 0  -0.4399999999998336 0.5 0  -0.4499999999998613 0.5 0  -0.4599999999998891 0.5 0  -0.4699999999999167 0.5 0  -0.4799999999999445 0.5 0  -0.4899999999999722 0.5 0  -0.5 0.4902110204681464 0  -0.5 0.4804459958734807 0  -0.5 0.4707048677450883 0  -0.5 0.4609875815766065 0  -0.5 0.4512940759251849 0  -0.5 0.4416242912883993 0  -0.5 0.4319781678689807 0  -0.5 0.4223556545383647 0  -0.5 0.4127566896324213 0  -0.5 0.4031812128200121 0  -0.5 0.3936291733057916 0  -0.5 0.3841005081172659 0  -0.5 0.3745951585781932 0  -0.5 0.3651130778999337 0  -0.5 0.3556541993788045 0  -0.5 0.3462184677228392 0  -0.5 0.3368058273705318 0  -0.5 0.3274162224888609 0  -0.5 0.3180495969712945 0  -0.5 0.3087058944357755 0  -0.5 0.299385058222682 0  -0.5 0.2900870313927414 0  -0.5 0.2808117567250807 0  -0.5 0.2715591844628491 0  -0.5 0.2623292564012653 0  -0.5 0.253121909553727 0  -0.5 0.2439371050851549 0  -0.5 0.2347747685524501 0  -0.5 0.2256348634421331 0  -0.5 0.2165173209784076 0  -0.5 0.207422087829958 0  -0.5 0.1983491207029381 0  -0.5 0.1892983550950482 0  -0.5 0.1802697378305253 0  -0.5 0.1712632154965152 0  -0.5 0.1622787344187354 0  -0.5 0.1533162406595534 0  -0.5 0.1443756800160514 0  -0.5 0.1354569980180493 0  -0.5 0.1265601399261414 0  -0.5 0.1176850622761093 0  -0.5 0.1088317009011999 0  -0.5 0.09167500000001694 0  -0.5 0.08335000000003931 0  -0.5 0.07502500000006167 0  -0.5 0.06670000000008947 0  -0.5 0.05837500000011001 0  -0.5 0.0500500000001328 0  -0.5 0.0417250000001127 0  -0.5 0.03340000000008944 0  -0.5 0.02507500000006573 0  -0.5 0.01675000000004653 0  -0.5 0.008425000000027341 
[...]
<PointData  Vectors="f_20"> 
<DataArray  type="Float64"  Name="f_20"  NumberOfComponents="3" format="ascii">-6.1524245219580951e-06 6.4056455356396942e-05 0.0000000000000000e+00  0.0000000000000000e+00 0.0000000000000000e+00 0.0000000000000000e+00  0.0000000000000000e+00 0.0000000000000000e+00 0.0000000000000000e+00  -4.9013574979068182e-05 5.0675293701039155e-05 0.0000000000000000e+00  1.0075054554211797e-04 6.6499999999999997e-03 0.0000000000000000e+00  1.0667998514293817e-04 6.6499999999999988e-03 0.0000000000000000e+00  1.0365549681902344e-04 6.6510728024218669e-03 0.0000000000000000e+00  -1.3331622823104888e-06 -6.7443792308690312e-07 0.0000000000000000e+00  9.6593714925724810e-05 6.6363080405526425e-03 0.0000000000000000e+00  -8.1222793169822440e-06 1.3456954769900166e-05 0.0000000000000000e+00  -8.1334168847441663e-07 -6.6875726938515949e-07 0.0000000000000000e+00  1.0445133009361272e-04 6.6510688200609198e-03 0.0000000000000000e+00  0.0000000000000000e+00 0.0000000000000000e+00 0.0000000000000000e+00  0.0000000000000000e+00 0.0000000000000000e+00 0.0000000000000000e+00  0.0000000000000000e+00 0.0000000000000000e+00 0.0000000000000000e+00  0.0000000000000000e+00 0.0000000000000000e+00 0.0000000000000000e+00  0.0000000000000000e+00 0.0000000000000000e+00 0.0000000000000000e+00  0.0000000000000000e+00 0.0000000000000000e+00 0.0000000000000000e+00  0.0000000000000000e+00 0.0000000000000000e+00 0.0000000000000000e+00  0.0000000000000000e+00 0.0000000000000000e+00 0.0000000000000000e+00  0.0000000000000000e+00 0.0000000000000000e+00 0.0000000000000000e+00  0.0000000000000000e+00 0.0000000000000000e+00 0.0000000000000000e+00  0.0000000000000000e+00 0.0000000000000000e+00 0.0000000000000000e+00  0.0000000000000000e+00 0.0000000000000000e+00 0.0000000000000000e+00  0.0000000000000000e+00 0.0000000000000000e+00 0.0000000000000000e+00  0.0000000000000000e+00 0.0000000000000000e+00 0.0000000000000000e+00  0.0000000000000000e+00 0.0000000000000000e+00 0.0000000000000000e+00  0.0000000000000000e+00 0.0000000000000000e+00 0.0000000000000000e+00  0.0000000000000000e+00 0.0000000000000000e+00 0.0000000000000000e+00  0.0000000000000000e+00 0.0000000000000000e+00 0.0000000000000000e+00  0.0000000000000000e+00 0.0000000000000000e+00 0.0000000000000000e+00  0.0000000000000000e+00 0.0000000000000000e+00 0.0000000000000000e+00  0.0000000000000000e+00 0.0000000000000000e+00 0.0000000000000000e+00  0.0000000000000000e+00 0.0000000000000000e+00 0.0000000000000000e+00  0.0000000000000000e+00 0.0000000000000000e+00 0.0000000000000000e+00  0.0000000000000000e+00 0.0000000000000000e+00 0.0000000000000000e+00  0.0000000000000000e+00 0.0000000000000000e+00 0.0000000000000000e+00  0.0000000000000000e+00 0.0000000000000000e+00 0.0000000000000000e+00  0.0000000000000000e+00 0.0000000000000000e+00 0.0000000000000000e+00  0.0000000000000000e+00 0.0000000000000000e+00 0.0000000000000000e+00  0.0000000000000000e+00 0.0000000000000000e+00 0.0000000000000000e+00  0.0000000000000000e+00 0.0000000000000000e+00 0.0000000000000000e+00  0.0000000000000000e+00 0.0000000000000000e+00 0.0000000000000000e+00  0.0000000000000000e+00 0.0000000000000000e+00 0.0000000000000000e+00  0.0000000000000000e+00 0.0000000000000000e+00 0.0000000000000000e+00  0.0000000000000000e+00 0.0000000000000000e+00 0.0000000000000000e+00  0.0000000000000000e+00 0.0000000000000000e+00 0.0000000000000000e+00  0.0000000000000000e+00 0.0000000000000000e+00 0.0000000000000000e+00  0.0000000000000000e+00 0.0000000000000000e+00 0.0000000000000000e+00  0.0000000000000000e+00 0.0000000000000000e+00 0.0000000000000000e+00  0.0000000000000000e+00 0.0000000000000000e+00 0.0000000000000000e+00  0.0000000000000000e+00 0.0000000000000000e+00 0.0000000000000000e+00  0.0000000000000000e+00 0.0000000000000000e+00 0.0000000000000000e+00  0.0000000000000000e+00 0.0000000000000000e+00 0.0000000000000000e+00  0.0000000000000000e+00 0.0000000000000000e+00 0.0000000000000000e+00  0.0000000000000000e+00 0.0000000000000000e+00 0.0000000000000000e+00  0.0000000000000000e+00 0.0000000000000000e+00 0.0000000000000000e+00  0.0000000000000000e+00 0.0000000000000000e+00 0.0000000000000000e+00  0.0000000000000000e+00 0.0000000000000000e+00 0.0000000000000000e+00  0.0000000000000000e+00 0.0000000000000000e+00 0.0000000000000000e+00  0.0000000000000000e+00 0.0000000000000000e+00 0.0000000000000000e+00  0.0000000000000000e+00 0.0000000000000000e+00 0.0000000000000000e+00  0.0000000000000000e+00 0.0000000000000000e+00 0.0000000000000000e+00  0.0000000000000000e+00 0.0000000000000000e+00 0.0000000000000000e+00  0.0000000000000000e+00 0.0000000000000000e+00 0.0000000000000000e+00  0.0000000000000000e+00 0.0000000000000000e+00 0.0000000000000000e+00  0.0000000000000000e+00 0.0000000000000000e+00 0.0000000000000000e+00  0.0000000000000000e+00 0.0000000000000000e+00 0.0000000000000000e+00  0.0000000000000000e+00 0.0000000000000000e+00 0.0000000000000000e+00  0.0000000000000000e+00 0.0000000000000000e+00 0.0000000000000000e+00  0.0000000000000000e+00 0.0000000000000000e+00 0.0000000000000000e+00  0.0000000000000000e+00 0.0000000000000000e+00 0.0000000000000000e+00  0.0000000000000000e+00 0.0000000000000000e+00 0.0000000000000000e+00  0.0000000000000000e+00 0.0000000000000000e+00 0.0000000000000000e+00  0.0000000000000000e+00 0.0000000000000000e+00 0.0000000000000000e+00  0.0000000000000000e+00 0.0000000000000000e+00 0.0000000000000000e+00  0.0000000000000000e+00 0.0000000000000000e+00 0.0000000000000000e+00  0.0000000000000000e+00 0.0000000000000000e+00 0.0000000000000000e+00  0.0000000000000000e+00 0.0000000000000000e+00 0.0000000000000000e+00  0.0000000000000000e+00 0.0000000000000000e+00 0.0000000000000000e+00  0.0000000000000000e+00 0.0000000000000000e+00 0.0000000000000000e+00  0.0000000000000000e+00 0.0000000000000000e+00 0.0000000000000000e+00  0.0000000000000000e+00 0.0000000000000000e+00 0.0000000000000000e+00  0.0000000000000000e+00 0.0000000000000000e+00 0.0000000000000000e+00  0.0000000000000000e+00 0.0000000000000000e+00 0.0000000000000000e+00  0.0000000000000000e+00 0.0000000000000000e+00 0.0000000000000000e+00  0.0000000000000000e+00 0.0000000000000000e+00 0.0000000000000000e+00  0.0000000000000000e+00 0.0000000000000000e+00 0.0000000000000000e+00  0.0000000000000000e+00 0.0000000000000000e+00 0.0000000000000000e+00  0.0000000000000000e+00 0.0000000000000000e+00 0.0000000000000000e+00  0.0000000000000000e+00 0.0000000000000000e+00 0.0000000000000000e+00  0.0000000000000000e+00 0.0000000000000000e+00 0.0000000000000000e+00  0.0000000000000000e+00 0.0000000000000000e+00 0.0000000000000000e+00  0.0000000000000000e+00 0.0000000000000000e+00 0.0000000000000000e+00  0.0000000000000000e+00 0.0000000000000000e+00 0.0000000000000000e+00  0.0000000000000000e+00 0.0000000000000000e+00 0.0000000000000000e+00  0.0000000000000000e+00 0.0000000000000000e+00 0.0000000000000000e+00  0.0000000000000000e+00 0.0000000000000000e+00 0.0000000000000000e+00  0.0000000000000000e+00 0.0000000000000000e+00 0.0000000000000000e+00  0.0000000000000000e+00 0.0000000000000000e+00 0.0000000000000000e+00  0.0000000000000000e+00 0.0000000000000000e+00 0.0000000000000000e+00  0.0000000000000000e+00 0.0000000000000000e+00 0.0000000000000000e+00  0.0000000000000000e+00 0.0000000000000000e+00 0.0000000000000000e+00  0.0000000000000000e+00 0.0000000000000000e+00 0.0000000000000000e+00  0.0000000000000000e+00 0.0000000000000000e+00 0.0000000000000000e+00  0.0000000000000000e+00 0.0000000000000000e+00 0.0000000000000000e+00  0.0000000000000000e+00 0.0000000000000000e+00 0.0000000000000000e+00  0.0000000000000000e+00 0.0000000000000000e+00 0.0000000000000000e+00  0.0000000000000000e+00 0.0000000000000000e+00 0.0000000000000000e+00  0.0000000000000000e+00 0.0000000000000000e+00 0.0000000000000000e+00  0.0000000000000000e+00 0.0000000000000000e+00 0.0000000000000000e+00  -5.9603841818184549e-07 6.2603299064779856e-07 0.0000000000000000e+00  -9.7865745003404381e-07 1.0838094303868821e-06 0.0000000000000000e+00  -1.2905830624355701e-06 1.4762029288039183e-06 0.0000000000000000e+00  -1.5626619276435809e-06 1.8348149134037323e-06 0.0000000000000000e+00  -1.8059897649280862e-06 2.1703788531158121e-06 0.0000000000000000e+00  -2.0283861501374153e-06 2.4914900976770323e-06 0.0000000000000000e+00  -2.2363355637720905e-06 2.8019503008497542e-06 0.0000000000000000e+00  -2.4276650508752452e-06 3.1058935547835003e-06 0.0000000000000000e+00  -2.6079638948521401e-06 3.4045785333191929e-06 0.0000000000000000e+00  -2.7808031483362586e-06 3.6979991360687133e-06 0.0000000000000000e+00  -2.9451785842707617e-06 3.9890020247131907e-06 0.0000000000000000e+00  -3.1037067506922857e-06 4.2764006714204958e-06 0.0000000000000000e+00  -3.2562479963034427e-06 4.5627443211774302e-06 0.0000000000000000e+00  -3.4051365154795691e-06 4.8462264030923516e-06 0.0000000000000000e+00  -3.5502528179753165e-06 5.1290457951234184e-06 0.0000000000000000e+00  -3.6929148382571127e-06 5.4103461989363896e-06 0.0000000000000000e+00  -3.8326914535292821e-06 5.6907148510977554e-06 0.0000000000000000e+00  -3.9708224323001811e-06 5.9702393296431198e-06 0.0000000000000000e+00  -4.1076370704099176e-06 6.2494140401908686e-06 0.0000000000000000e+00  -4.2433851400474379e-06 6.5281015069121880e-06 0.0000000000000000e+00  -4.3785724663361388e-06 6.8066408744404317e-06 0.0000000000000000e+00  -4.5135602175434905e-06 7.0850757952920346e-06 0.0000000000000000e+00  -4.6487240925880905e-06 7.3636237188861819e-06 0.0000000000000000e+00  -4.7844136438034031e-06 7.6422997519775820e-06 0.0000000000000000e+00  -4.9209140809530679e-06 7.9214721836248493e-06 0.0000000000000000e+00  -5.0586784985418776e-06 8.2013506357428612e-06 0.0000000000000000e+00  -5.1980025381689879e-06 8.4824220572310623e-06 0.0000000000000000e+00  -5.3382529184307178e-06 8.7635777482136154e-06 0.0000000000000000e+00  -5.4815616194234055e-06 9.0465057624200742e-06 0.0000000000000000e+00  -5.6276782052928667e-06 9.3310682788863808e-06 0.0000000000000000e+00  -5.7769171204801626e-06 9.6168772165604475e-06 0.0000000000000000e+00  -5.9292875785714497e-06 9.9054964309499341e-06 0.0000000000000000e+00  -6.0866115150219786e-06 1.0196712184671053e-05 0.0000000000000000e+00  -6.2483346333596372e-06 1.0492010859073447e-05 0.0000000000000000e+00  -6.4152043741034015e-06 1.0789614673977956e-05 0.0000000000000000e+00  -6.5902275435158021e-06 1.1092281848635688e-05 0.0000000000000000e+00  -6.7723986793112310e-06 1.1400167695456565e-05 0.0000000000000000e+00  -6.9625658589687402e-06 1.1716999122261934e-05 0.0000000000000000e+00  -7.1650203837080432e-06 1.2039332451304703e-05 0.0000000000000000e+00  -7.3781144339794918e-06 1.2372369991038784e-05 0.0000000000000000e+00  -7.6080814750654272e-06 1.2716861735744035e-05 0.0000000000000000e+00  -7.8552953779861103e-06 1.3080051647304792e-05 0.0000000000000000e+00  -8.4056123417855911e-06 1.3840542947520207e-05 0.0000000000000000e+00  -8.7181351053743913e-06 1.4258412773436706e-05 0.0000000000000000e+00  -9.0716277168703076e-06 1.4703957017187409e-05 0.0000000000000000e+00  -9.4814175995439099e-06 1.5220751661492765e-05 0.0000000000000000e+00  -9.9467484686873131e-06 1.5784474133649802e-05 0.0000000000000000e+00  -1.0536252611536985e-05 1.6446149984056785e-05 0.0000000000000000e+00  -1.1268378277545734e-05 1.7330985866898546e-05 0.0000000000000000e+00  -1.2286315185680621e-05 1.8459830149609567e-05 0.0000000000000000e+00  -1.3771826499863196e-05 1.9991078825595681e-05 0.0000000000000000e+00  -1.6286656320801353e-05 2.2654064199023143e-05 0.0000000000000000e+00  -2.2886541252996552e-05 2.8915278893312006e-05 0.0000000000000000e+00  2.6215212500924506e-05 6.5762698992862315e-03 0.0000000000000000e+00  8.1042847605159875e-05 6.6190830174555826e-03 0.0000000000000000e+00  8.7949576755994371e-05 6.6263955703666326e-03 0.0000000000000000e+00  9.1019844100813854e-05 6.6297086747857574e-03 0.0000000000000000e+00  9.2632957289771680e-05 6.6314880267226038e-03 0.0000000000000000e+00  9.3669398229241833e-05 6.6326347544753746e-03 0.0000000000000000e+00  9.4429756667147315e-05 6.6335642555798860e-03 0.0000000000000000e+00  9.5032310094862244e-05 6.6342808519980296e-03 0.0000000000000000e+00  9.5523911562489053e-05 6.6348804684017472e-03 0.0000000000000000e+00  9.5921503538675890e-05 6.6353942648174685e-03 0.0000000000000000e+00  9.6281840298232250e-05 6.6358757732065234e-03 0.0000000000000000e+00  9.6880773867325087e-05 6.6367257947212328e-03 0.0000000000000000e+00  9.7141411605849079e-05 6.6371258637888276e-03 0.0000000000000000e+00  9.7378760526873237e-05 6.6375018352120875e-03 0.0000000000000000e+00  9.7593881112818435e-05 6.6378631012825847e-03 0.0000000000000000e+00  9.7794463514191919e-05 6.6382112742346296e-03 0.0000000000000000e+00  9.7979024661381422e-05 6.6385531278981029e-03 0.0000000000000000e+00  9.8152292960334694e-05 6.6388841675618744e-03 0.0000000000000000e+00  9.8315824248986186e-05 6.6392092557777359e-03 0.0000000000000000e+00  9.8467720374546423e-05 6.6395284955074879e-03 0.0000000000000000e+00  9.8612330609960467e-05 6.6398456780339321e-03 0.0000000000000000e+00  9.8749821952262085e-05 6.6401582625240365e-03 0.0000000000000000e+00  9.8879782399330707e-05 6.6404683103459435e-03 0.0000000000000000e+00  9.9004089391037869e-05 6.6407752716991274e-03 0.0000000000000000e+00  9.9122710425115116e-05 6.6410815863468201e-03 0.0000000000000000e+00  9.9235943318619623e-05 6.6413865061491746e-03 0.0000000000000000e+00  9.9342698978908525e-05 6.6416893479094167e-03 0.0000000000000000e+00  9.9446448212255515e-05 6.6419932273129199e-03 0.0000000000000000e+00  9.9545416757175045e-05 6.6422959246205272e-03 0.0000000000000000e+00  9.9639833109972623e-05 6.6425980935093821e-03 0.0000000000000000e+00  9.9730090723947949e-05 6.6428998888875676e-03 0.0000000000000000e+00  9.9816277505961862e-05 6.6432020948832288e-03 0.0000000000000000e+00  9.9898876631514664e-05 6.6435045595029983e-03 0.0000000000000000e+00  9.9977009884015544e-05 6.6438072769352792e-03 0.0000000000000000e+00  1.0005180995894806e-04 6.6441108813429855e-03 0.0000000000000000e+00  1.0012184665755473e-04 6.6444138401876461e-03 0.0000000000000000e+00  1.0018911568940162e-04 6.6447185358218487e-03 0.0000000000000000e+00  1.0025256341964506e-04 6.6450234391384070e-03 0.0000000000000000e+00  1.0031161706098710e-04 6.6453287201199253e-03 0.0000000000000000e+00  1.0036743626409857e-04 6.6456342703267082e-03 0.0000000000000000e+00  1.0041960020014431e-04 6.6459415698141575e-03 0.0000000000000000e+00  1.0046789101002840e-04 6.6462483702140820e-03 0.0000000000000000e+00  1.0051255521307108e-04 6.6465569162844984e-03 0.0000000000000000e+00  1.0055331056362878e-04 6.6468657974510376e-03 0.0000000000000000e+00  1.0059024345818297e-04 6.6471762692315861e-03 0.0000000000000000e+00  1.0062360871361113e-04 6.6474866179573079e-03 0.0000000000000000e+00  1.0065308096366406e-04 6.6477977608039836e-03 0.0000000000000000e+00  1.0067852203590120e-04 6.6481101630250176e-03 0.0000000000000000e+00  1.0070029903419546e-04 6.6484229780693540e-03 0.0000000000000000e+00  1.0071808190270873e-04 6.6487367942029184e-03 0.0000000000000000e+00  1.0073227532715498e-04 6.6490515266741258e-03 0.0000000000000000e+00  1.0074124870348931e-04 6.6493670519508366e-03 0.0000000000000000e+00  1.0074786315111320e-04 6.6496831093864383e-03 0.0000000000000000e+00  1.0088762300472655e-04 6.6499999999999997e-03 0.0000000000000000e+00  1.0102390867881559e-04 6.6500000000000005e-03 0.0000000000000000e+00  1.0115814822985430e-04 6.6499999999999997e-03 0.0000000000000000e+00  1.0129075031536351e-04 6.6499999999999997e-03 0.0000000000000000e+00  1.0142211116025591e-04 6.6499999999999997e-03 0.0000000000000000e+00  1.0155072201931555e-04 6.6499999999999997e-03 0.0000000000000000e+00  1.0167829884679847e-04 6.6499999999999988e-03 0.0000000000000000e+00  1.0180441912305374e-04 6.6499999999999997e-03 0.0000000000000000e+00  1.0192925963814094e-04 6.6499999999999997e-03 0.0000000000000000e+00  1.0205147986981325e-04 6.6500000000000005e-03 0.0000000000000000e+00  1.0217300689072284e-04 6.6499999999999997e-03 0.0000000000000000e+00  1.0229299842464789e-04 6.6499999999999997e-03 0.0000000000000000e+00  1.0241155328419817e-04 6.6499999999999997e-03 0.0000000000000000e+00  1.0252848852139276e-04 6.6499999999999997e-03 0.0000000000000000e+00  1.0264404795189208e-04 6.6499999999999997e-03 0.0000000000000000e+00  1.0275883453658798e-04 6.6499999999999997e-03 0.0000000000000000e+00  1.0287246345645846e-04 6.6499999999999997e-03 0.0000000000000000e+00  1.0298471026859431e-04 6.6499999999999997e-03 0.0000000000000000e+00  1.0309575709215454e-04 6.6499999999999997e-03 0.0000000000000000e+00  1.0320586744892034e-04 6.6499999999999988e-03 0.0000000000000000e+00  1.0331489938563555e-04 6.6499999999999997e-03 0.0000000000000000e+00  1.0342296584130163e-04 6.6499999999999997e-03 0.0000000000000000e+00  1.0353008006586079e-04 6.6500000000000005e-03 0.0000000000000000e+00  1.0363613746425669e-04 6.6499999999999988e-03 0.0000000000000000e+00  1.0374148053545970e-04 6.6499999999999997e-03 0.0000000000000000e+00  1.0384580098271199e-04 6.6499999999999997e-03 0.0000000000000000e+00  1.0394908061539815e-04 6.6499999999999997e-03 0.0000000000000000e+00  1.0405160902079175e-04 6.6499999999999997e-03 0.0000000000000000e+00  1.0415275303006456e-04 6.6499999999999997e-03 0.0000000000000000e+00  1.0425295233937895e-04 6.6499999999999997e-03 0.0000000000000000e+00  1.0435222495229973e-04 6.6499999999999997e-03 0.0000000000000000e+00  1.0445021734670906e-04 6.6499999999999997e-03 0.0000000000000000e+00  1.0454716137750320e-04 6.6500000000000005e-03 0.0000000000000000e+00  1.0464330331948079e-04 6.6499999999999997e-03 0.0000000000000000e+00  1.0473736564691937e-04 6.6500000000000005e-03 0.0000000000000000e+00  1.0483047985285347e-04 6.6499999999999997e-03 0.0000000000000000e+00  1.0492215848309481e-04 6.6499999999999997e-03 0.0000000000000000e+00  1.0501228178066590e-04 6.6499999999999997e-03 0.0000000000000000e+00  1.0510128092194975e-04 6.6499999999999997e-03 0.0000000000000000e+00  1.0518812728163949e-04 6.6499999999999997e-03 0.0000000000000000e+00  1.0527310860770113e-04 6.6499999999999997e-03 0.0000000000000000e+00  1.0535607730561433e-04 6.6499999999999997e-03 0.0000000000000000e+00  1.0543744357779452e-04 6.6499999999999997e-03 0.0000000000000000e+00  1.0551709112664723e-04 6.6499999999999997e-03 0.0000000000000000e+00  1.0559398382628031e-04 6.6499999999999997e-03 0.0000000000000000e+00  1.0566927936894940e-04 6.6500000000000005e-03 0.0000000000000000e+00  1.0574243206038776e-04 6.6499999999999997e-03 0.0000000000000000e+00  1.0581225021662774e-04 6.6499999999999997e-03 0.0000000000000000e+00  1.0588018968608343e-04 6.6499999999999988e-03 0.0000000000000000e+00  1.0594617450114885e-04 6.6499999999999997e-03 0.0000000000000000e+00  1.0600948221658896e-04 6.6499999999999997e-03 0.0000000000000000e+00  1.0606981743831794e-04 6.6499999999999988e-03 0.0000000000000000e+00  1.0612766566241014e-04 6.6499999999999997e-03 0.0000000000000000e+00  1.0618337070812286e-04 6.6499999999999997e-03 0.0000000000000000e+00  1.0623605403520893e-04 6.6499999999999997e-03 0.0000000000000000e+00  1.0628609326562955e-04 6.6499999999999997e-03 0.0000000000000000e+00  1.0633373833668399e-04 6.6499999999999988e-03 0.0000000000000000e+00  1.0637907926890022e-04 6.6499999999999997e-03 0.0000000000000000e+00  1.0642104017504130e-04 6.6499999999999997e-03 0.0000000000000000e+00  1.0646101912464281e-04 6.6499999999999997e-03 0.0000000000000000e+00  1.0649830469099598e-04 6.6499999999999997e-03 0.0000000000000000e+00  1.0653310622811576e-04 6.6500000000000005e-03 0.0000000000000000e+00  1.0656520103205821e-04 6.6499999999999997e-03 0.0000000000000000e+00  1.0659544062107505e-04 6.6500000000000005e-03 0.0000000000000000e+00  1.0662352655312788e-04 6.6499999999999997e-03 0.0000000000000000e+00  1.0664926542466115e-04 6.6499999999999997e-03 0.0000000000000000e+00  1.0667262982378655e-04