<?xml version="1.0"?>
<VTKFile type="UnstructuredGrid"  version="0.1"  >
<UnstructuredGrid>
<Piece  NumberOfPoints="15540" NumberOfCells="30546">
<Points>
<DataArray  type="Float64"  NumberOfComponents="3"  format="ascii">0 0 0  -0.5 -0.5 0  0.5 -0.5 0  0.5 0 0  0.5 0.5 0  -0.5 0.5 0  -0.5 0.0001 0  -0.5 -0.0001 0  0.5 0.1 0  0.5 -0.1 0  -0.5 -0.1 0  -0.5 0.1 0  -0.4900000000000277 -0.5 0  -0.4800000000000555 -0.5 0  -0.4700000000000832 -0.5 0  -0.4600000000001109 -0.5 0  -0.4500000000001387 -0.5 0  -0.4400000000001664 -0.5 0  -0.4300000000001942 -0.5 0  -0.4200000000002219 -0.5 0  -0.4100000000002497 -0.5 0  -0.4000000000002774 -0.5 0  -0.3900000000003052 -0.5 0  -0.3800000000003328 -0.5 0  -0.3700000000003606 -0.5 0  -0.3600000000003883 -0.5 0  -0.3500000000004161 -0.5 0  -0.3400000000004438 -0.5 0  -0.3300000000004716 -0.5 0  -0.3200000000004993 -0.5 0  -0.3100000000005271 -0.5 0  -0.3000000000005548 -0.5 0  -0.2900000000005825 -0.5 0  -0.2800000000006103 -0.5 0  -0.2700000000006381 -0.5 0  -0.2600000000006658 -0.5 0  -0.2500000000006935 -0.5 0  -0.2400000000007212 -0.5 0  -0.230000000000749 -0.5 0  -0.2200000000007767 -0.5 0  -0.2100000000008044 -0.5 0  -0.2000000000008322 -0.5 0  -0.19000000000086 -0.5 0  -0.1800000000008877 -0.5 0  -0.1700000000009154 -0.5 0  -0.1600000000009431 -0.5 0  -0.1500000000009709 -0.5 0  -0.1400000000009986 -0.5 0  -0.1300000000010264 -0.5 0  -0.1200000000010541 -0.5 0  -0.1100000000010818 -0.5 0  -0.1000000000011096 -0.5 0  -0.09000000000113734 -0.5 0  -0.08000000000116503 -0.5 0  -0.07000000000119283 -0.5 0  -0.06000000000122058 -0.5 0  -0.05000000000124827 -0.5 0  -0.04000000000127607 -0.5 0  -0.03000000000130376 -0.5 0  -0.02000000000133151 -0.5 0  -0.01000000000135925 -0.5 0  -1.376121439022882e-12 -0.5 0  0.009999999998640763 -0.5 0  0.01999999999866864 -0.5 0  0.02999999999869629 -0.5 0  0.03999999999872406 -0.5 0  0.04999999999875182 -0.5 0  0.05999999999877947 -0.5 0  0.06999999999880724 -0.5 0  0.079999999998835 -0.5 0  0.08999999999886266 -0.5 0  0.09999999999889042 -0.5 0  0.1099999999989182 -0.5 0  0.1199999999989459 -0.5 0  0.1299999999989737 -0.5 0  0.1399999999990014 -0.5 0  0.1499999999990291 -0.5 0  0.1599999999990568 -0.5 0  0.1699999999990847 -0.5 0  0.1799999999991124 -0.5 0  0.1899999999991401 -0.5 0  0.1999999999991678 -0.5 0  0.2099999999991955 -0.5 0  0.2199999999992234 -0.5 0  0.2299999999992511 -0.5 0  0.2399999999992788 -0.5 0  0.2499999999993066 -0.5 0  0.2599999999993342 -0.5 0  0.269999999999362 -0.5 0  0.2799999999993897 -0.5 0  0.2899999999994175 -0.5 0  0.2999999999994452 -0.5 0  0.3099999999994729 -0.5 0  0.3199999999995007 -0.5 0  0.3299999999995284 -0.5 0  0.3399999999995562 -0.5 0  0.3499999999995839 -0.5 0  0.3599999999996116 -0.5 0  0.3699999999996393 -0.5 0  0.379999999999667 -0.5 0  0.3899999999996949 -0.5 0  0.3999999999997226 -0.5 0  0.4099999999997503 -0.5 0  0.419999999999778 -0.5 0  0.4299999999998058 -0.5 0  0.4399999999998336 -0.5 0  0.4499999999998613 -0.5 0  0.4599999999998891 -0.5 0  0.4699999999999167 -0.5 0  0.4799999999999445 -0.5 0  0.4899999999999722 -0.5 0  0.5 -0.4902110204681464 0  0.5 -0.4804459958734807 0  0.5 -0.4707048677450883 0  0.5 -0.4609875815766065 0  0.5 -0.4512940759251849 0  0.5 -0.4416242912883993 0  0.5 -0.4319781678689807 0  0.5 -0.4223556545383647 0  0.5 -0.4127566896324213 0  0.5 -0.4031812128200121 0  0.5 -0.3936291733057916 0  0.5 -0.3841005081172659 0  0.5 -0.3745951585781932 0  0.5 -0.3651130778999337 0  0.5 -0.3556541993788045 0  0.5 -0.3462184677228392 0  0.5 -0.3368058273705318 0  0.5 -0.3274162224888609 0  0.5 -0.3180495969712945 0  0.5 -0.3087058944357755 0  0.5 -0.299385058222682 0  0.5 -0.2900870313927414 0  0.5 -0.2808117567250807 0  0.5 -0.2715591844628491 0  0.5 -0.2623292564012653 0  0.5 -0.253121909553727 0  0.5 -0.2439371050851549 0  0.5 -0.2347747685524501 0  0.5 -0.2256348634421331 0  0.5 -0.2165173209784076 0  0.5 -0.207422087829958 0  0.5 -0.1983491207029381 0  0.5 -0.1892983550950482 0  0.5 -0.1802697378305253 0  0.5 -0.1712632154965152 0  0.5 -0.1622787344187354 0  0.5 -0.1533162406595534 0  0.5 -0.1443756800160514 0  0.5 -0.1354569980180493 0  0.5 -0.1265601399261414 0  0.5 -0.1176850622761093 0  0.5 -0.1088317009011999 0  0.5 -0.09166666666668973 0  0.5 -0.08333333333337943 0  0.5 -0.07500000000006915 0  0.5 -0.06666666666675886 0  0.5 -0.05833333333344858 0  0.5 -0.05000000000013693 0  0.5 -0.04166666666678191 0  0.5 -0.03333333333342643 0  0.5 -0.02500000000006916 0  0.5 -0.01666666666671188 0  0.5 -0.00833333333335548 0  0.5 0.008333333333318314 0  0.5 0.01666666666663358 0  0.5 0.02499999999994162 0  0.5 0.03333333333325101 0  0.5 0.04166666666655769 0  0.5 0.04999999999986843 0  0.5 0.05833333333322258 0  0.5 0.06666666666657715 0  0.5 0.07499999999993352 0  0.5 0.08333333333328992 0  0.5 0.09166666666664541 0  0.5 0.1088317009011616 0  0.5 0.1176850622760307 0  0.5 0.1265601399260203 0  0.5 0.1354569980178909 0  0.5 0.1443756800158549 0  0.5 0.153316240659315 0  0.5 0.1622787344184454 0  0.5 0.1712632154961752 0  0.5 0.1802697378301332 0  0.5 0.1892983550946039 0  0.5 0.1983491207024433 0  0.5 0.2074220878294123 0  0.5 0.216517320977811 0  0.5 0.2256348634414833 0  0.5 0.2347747685517479 0  0.5 0.2439371050844009 0  0.5 0.2531219095529224 0  0.5 0.2623292564004089 0  0.5 0.2715591844619371 0  0.5 0.2808117567241139 0  0.5 0.290087031391723 0  0.5 0.2993850582216101 0  0.5 0.3087058944347426 0  0.5 0.3180495969703129 0  0.5 0.3274162224879299 0  0.5 0.3368058273696494 0  0.5 0.3462184677220051 0  0.5 0.3556541993780186 0  0.5 0.3651130778991989 0  0.5 0.3745951585775107 0  0.5 0.3841005081166359 0  0.5 0.3936291733052134 0  0.5 0.4031812128194852 0  0.5 0.412756689631945 0  0.5 0.4223556545379392 0  0.5 0.431978167868607 0  0.5 0.4416242912880781 0  0.5 0.4512940759249164 0  0.5 0.4609875815763912 0  0.5 0.4707048677449264 0  0.5 0.4804459958733726 0  0.5 0.4902110204680924 0  0.4900000000000277 0.5 0  0.4800000000000555 0.5 0  0.4700000000000832 0.5 0  0.4600000000001109 0.5 0  0.4500000000001387 0.5 0  0.4400000000001664 0.5 0  0.4300000000001942 0.5 0  0.4200000000002219 0.5 0  0.4100000000002497 0.5 0  0.4000000000002774 0.5 0  0.3900000000003052 0.5 0  0.3800000000003328 0.5 0  0.3700000000003606 0.5 0  0.3600000000003883 0.5 0  0.3500000000004161 0.5 0  0.3400000000004438 0.5 0  0.3300000000004716 0.5 0  0.3200000000004993 0.5 0  0.3100000000005271 0.5 0  0.3000000000005548 0.5 0  0.2900000000005825 0.5 0  0.2800000000006103 0.5 0  0.2700000000006381 0.5 0  0.2600000000006658 0.5 0  0.2500000000006935 0.5 0  0.2400000000007212 0.5 0  0.230000000000749 0.5 0  0.2200000000007767 0.5 0  0.2100000000008044 0.5 0  0.2000000000008322 0.5 0  0.19000000000086 0.5 0  0.1800000000008877 0.5 0  0.1700000000009154 0.5 0  0.1600000000009431 0.5 0  0.1500000000009709 0.5 0  0.1400000000009986 0.5 0  0.1300000000010264 0.5 0  0.1200000000010541 0.5 0  0.1100000000010818 0.5 0  0.1000000000011096 0.5 0  0.09000000000113734 0.5 0  0.08000000000116503 0.5 0  0.07000000000119283 0.5 0  0.06000000000122058 0.5 0  0.05000000000124827 0.5 0  0.04000000000127607 0.5 0  0.03000000000130376 0.5 0  0.02000000000133151 0.5 0  0.01000000000135925 0.5 0  1.376121439022882e-12 0.5 0  -0.009999999998640763 0.5 0  -0.01999999999866864 0.5 0  -0.02999999999869629 0.5 0  -0.03999999999872406 0.5 0  -0.04999999999875182 0.5 0  -0.05999999999877947 0.5 0  -0.06999999999880724 0.5 0  -0.079999999998835 0.5 0  -0.08999999999886266 0.5 0  -0.09999999999889042 0.5 0  -0.1099999999989182 0.5 0  -0.1199999999989459 0.5 0  -0.1299999999989737 0.5 0  -0.1399999999990014 0.5 0  -0.1499999999990291 0.5 0  -0.1599999999990568 0.5 0  -0.1699999999990847 0.5 0  -0.1799999999991124 0.5 0  -0.1899999999991401 0.5 0  -0.1999999999991678 0.5 0  -0.2099999999991955 0.5 0  -0.2199999999992234 0.5 0  -0.2299999999992511 0.5 0  -0.2399999999992788 0.5 0  -0.2499999999993066 0.5 0  -0.2599999999993342 0.5 0  -0.269999999999362 0.5 0  -0.2799999999993897 0.5 0  -0.2899999999994175 0.5 0  -0.2999999999994452 0.5 0  -0.3099999999994729 0.5 0  -0.3199999999995007 0.5 0  -0.3299999999995284 0.5 0  -0.3399999999995562 0.5 0  -0.3499999999995839 0.5 0  -0.3599999999996116 0.5 0  -0.3699999999996393 0.5 0  -0.379999999999667 0.5 0  -0.3899999999996949 0.5 0  -0.3999999999997226 0.5 0  -0.4099999999997503 0.5 0  -0.419999999999778 0.5 0  -0.4299999999998058 0.5 0  -0.4399999999998336 0.5 0  -0.4499999999998613 0.5 0  -0.4599999999998891 0.5 0  -0.4699999999999167 0.5 0  -0.4799999999999445 0.5 0  -0.4899999999999722 0.5 0  -0.5 0.4902110204681464 0  -0.5 0.4804459958734807 0  -0.5 0.4707048677450883 0  -0.5 0.4609875815766065 0  -0.5 0.4512940759251849 0  -0.5 0.4416242912883993 0  -0.5 0.4319781678689807 0  -0.5 0.4223556545383647 0  -0.5 0.4127566896324213 0  -0.5 0.4031812128200121 0  -0.5 0.3936291733057916 0  -0.5 0.3841005081172659 0  -0.5 0.3745951585781932 0  -0.5 0.3651130778999337 0  -0.5 0.3556541993788045 0  -0.5 0.3462184677228392 0  -0.5 0.3368058273705318 0  -0.5 0.3274162224888609 0  -0.5 0.3180495969712945 0  -0.5 0.3087058944357755 0  -0.5 0.299385058222682 0  -0.5 0.2900870313927414 0  -0.5 0.2808117567250807 0  -0.5 0.2715591844628491 0  -0.5 0.2623292564012653 0  -0.5 0.253121909553727 0  -0.5 0.2439371050851549 0  -0.5 0.2347747685524501 0  -0.5 0.2256348634421331 0  -0.5 0.2165173209784076 0  -0.5 0.207422087829958 0  -0.5 0.1983491207029381 0  -0.5 0.1892983550950482 0  -0.5 0.1802697378305253 0  -0.5 0.1712632154965152 0  -0.5 0.1622787344187354 0  -0.5 0.1533162406595534 0  -0.5 0.1443756800160514 0  -0.5 0.1354569980180493 0  -0.5 0.1265601399261414 0  -0.5 0.1176850622761093 0  -0.5 0.1088317009011999 0  -0.5 0.09167500000001694 0  -0.5 0.08335000000003931 0  -0.5 0.07502500000006167 0  -0.5 0.06670000000008947 0  -0.5 0.05837500000011001 0  -0.5 0.0500500000001328 0  -0.5 0.0417250000001127 0  -0.5 0.03340000000008944 0  -0.5 0.02507500000006573 0  -0.5 0.01675000000004653 0  -0.5 0.008425000000027341 
[...]
<PointData  Vectors="f_20"> 
<DataArray  type="Float64"  Name="f_20"  NumberOfComponents="3" format="ascii">-9.9287292360564591e-05 3.3752656080513377e-04 0.0000000000000000e+00  0.0000000000000000e+00 0.0000000000000000e+00 0.0000000000000000e+00  0.0000000000000000e+00 0.0000000000000000e+00 0.0000000000000000e+00  -1.8925091697418183e-04 3.5136285602624428e-04 0.0000000000000000e+00  -1.3938115467705789e-04 7.0000000000000010e-04 0.0000000000000000e+00  4.9583679620399016e-05 7.0000000000000010e-04 0.0000000000000000e+00  -4.6642332655986868e-05 7.3473519915185520e-04 0.0000000000000000e+00  -3.6110632271745287e-05 -2.0002035335786298e-05 0.0000000000000000e+00  -1.8562452092151476e-04 4.0786850202630711e-04 0.0000000000000000e+00  -1.7914370057237999e-04 2.9609156977538265e-04 0.0000000000000000e+00  -2.0740432217387279e-05 -1.9822952918071136e-05 0.0000000000000000e+00  -2.1470918788569907e-05 7.3461842430068728e-04 0.0000000000000000e+00  0.0000000000000000e+00 0.0000000000000000e+00 0.0000000000000000e+00  0.0000000000000000e+00 0.0000000000000000e+00 0.0000000000000000e+00  0.0000000000000000e+00 0.0000000000000000e+00 0.0000000000000000e+00  0.0000000000000000e+00 0.0000000000000000e+00 0.0000000000000000e+00  0.0000000000000000e+00 0.0000000000000000e+00 0.0000000000000000e+00  0.0000000000000000e+00 0.0000000000000000e+00 0.0000000000000000e+00  0.0000000000000000e+00 0.0000000000000000e+00 0.0000000000000000e+00  0.0000000000000000e+00 0.0000000000000000e+00 0.0000000000000000e+00  0.0000000000000000e+00 0.0000000000000000e+00 0.0000000000000000e+00  0.0000000000000000e+00 0.0000000000000000e+00 0.0000000000000000e+00  0.0000000000000000e+00 0.0000000000000000e+00 0.0000000000000000e+00  0.0000000000000000e+00 0.0000000000000000e+00 0.0000000000000000e+00  0.0000000000000000e+00 0.0000000000000000e+00 0.0000000000000000e+00  0.0000000000000000e+00 0.0000000000000000e+00 0.0000000000000000e+00  0.0000000000000000e+00 0.0000000000000000e+00 0.0000000000000000e+00  0.0000000000000000e+00 0.0000000000000000e+00 0.0000000000000000e+00  0.0000000000000000e+00 0.0000000000000000e+00 0.0000000000000000e+00  0.0000000000000000e+00 0.0000000000000000e+00 0.0000000000000000e+00  0.0000000000000000e+00 0.0000000000000000e+00 0.0000000000000000e+00  0.0000000000000000e+00 0.0000000000000000e+00 0.0000000000000000e+00  0.0000000000000000e+00 0.0000000000000000e+00 0.0000000000000000e+00  0.0000000000000000e+00 0.0000000000000000e+00 0.0000000000000000e+00  0.0000000000000000e+00 0.0000000000000000e+00 0.0000000000000000e+00  0.0000000000000000e+00 0.0000000000000000e+00 0.0000000000000000e+00  0.0000000000000000e+00 0.0000000000000000e+00 0.0000000000000000e+00  0.0000000000000000e+00 0.0000000000000000e+00 0.0000000000000000e+00  0.0000000000000000e+00 0.0000000000000000e+00 0.0000000000000000e+00  0.0000000000000000e+00 0.0000000000000000e+00 0.0000000000000000e+00  0.0000000000000000e+00 0.0000000000000000e+00 0.0000000000000000e+00  0.0000000000000000e+00 0.0000000000000000e+00 0.0000000000000000e+00  0.0000000000000000e+00 0.0000000000000000e+00 0.0000000000000000e+00  0.0000000000000000e+00 0.0000000000000000e+00 0.0000000000000000e+00  0.0000000000000000e+00 0.0000000000000000e+00 0.0000000000000000e+00  0.0000000000000000e+00 0.0000000000000000e+00 0.0000000000000000e+00  0.0000000000000000e+00 0.0000000000000000e+00 0.0000000000000000e+00  0.0000000000000000e+00 0.0000000000000000e+00 0.0000000000000000e+00  0.0000000000000000e+00 0.0000000000000000e+00 0.0000000000000000e+00  0.0000000000000000e+00 0.0000000000000000e+00 0.0000000000000000e+00  0.0000000000000000e+00 0.0000000000000000e+00 0.0000000000000000e+00  0.0000000000000000e+00 0.0000000000000000e+00 0.0000000000000000e+00  0.0000000000000000e+00 0.0000000000000000e+00 0.0000000000000000e+00  0.0000000000000000e+00 0.0000000000000000e+00 0.0000000000000000e+00  0.0000000000000000e+00 0.0000000000000000e+00 0.0000000000000000e+00  0.0000000000000000e+00 0.0000000000000000e+00 0.0000000000000000e+00  0.0000000000000000e+00 0.0000000000000000e+00 0.0000000000000000e+00  0.0000000000000000e+00 0.0000000000000000e+00 0.0000000000000000e+00  0.0000000000000000e+00 0.0000000000000000e+00 0.0000000000000000e+00  0.0000000000000000e+00 0.0000000000000000e+00 0.0000000000000000e+00  0.0000000000000000e+00 0.0000000000000000e+00 0.0000000000000000e+00  0.0000000000000000e+00 0.0000000000000000e+00 0.0000000000000000e+00  0.0000000000000000e+00 0.0000000000000000e+00 0.0000000000000000e+00  0.0000000000000000e+00 0.0000000000000000e+00 0.0000000000000000e+00  0.0000000000000000e+00 0.0000000000000000e+00 0.0000000000000000e+00  0.0000000000000000e+00 0.0000000000000000e+00 0.0000000000000000e+00  0.0000000000000000e+00 0.0000000000000000e+00 0.0000000000000000e+00  0.0000000000000000e+00 0.0000000000000000e+00 0.0000000000000000e+00  0.0000000000000000e+00 0.0000000000000000e+00 0.0000000000000000e+00  0.0000000000000000e+00 0.0000000000000000e+00 0.0000000000000000e+00  0.0000000000000000e+00 0.0000000000000000e+00 0.0000000000000000e+00  0.0000000000000000e+00 0.0000000000000000e+00 0.0000000000000000e+00  0.0000000000000000e+00 0.0000000000000000e+00 0.0000000000000000e+00  0.0000000000000000e+00 0.0000000000000000e+00 0.0000000000000000e+00  0.0000000000000000e+00 0.0000000000000000e+00 0.0000000000000000e+00  0.0000000000000000e+00 0.0000000000000000e+00 0.0000000000000000e+00  0.0000000000000000e+00 0.0000000000000000e+00 0.0000000000000000e+00  0.0000000000000000e+00 0.0000000000000000e+00 0.0000000000000000e+00  0.0000000000000000e+00 0.0000000000000000e+00 0.0000000000000000e+00  0.0000000000000000e+00 0.0000000000000000e+00 0.0000000000000000e+00  0.0000000000000000e+00 0.0000000000000000e+00 0.0000000000000000e+00  0.0000000000000000e+00 0.0000000000000000e+00 0.0000000000000000e+00  0.0000000000000000e+00 0.0000000000000000e+00 0.0000000000000000e+00  0.0000000000000000e+00 0.0000000000000000e+00 0.0000000000000000e+00  0.0000000000000000e+00 0.0000000000000000e+00 0.0000000000000000e+00  0.0000000000000000e+00 0.0000000000000000e+00 0.0000000000000000e+00  0.0000000000000000e+00 0.0000000000000000e+00 0.0000000000000000e+00  0.0000000000000000e+00 0.0000000000000000e+00 0.0000000000000000e+00  0.0000000000000000e+00 0.0000000000000000e+00 0.0000000000000000e+00  0.0000000000000000e+00 0.0000000000000000e+00 0.0000000000000000e+00  0.0000000000000000e+00 0.0000000000000000e+00 0.0000000000000000e+00  0.0000000000000000e+00 0.0000000000000000e+00 0.0000000000000000e+00  0.0000000000000000e+00 0.0000000000000000e+00 0.0000000000000000e+00  0.0000000000000000e+00 0.0000000000000000e+00 0.0000000000000000e+00  0.0000000000000000e+00 0.0000000000000000e+00 0.0000000000000000e+00  0.0000000000000000e+00 0.0000000000000000e+00 0.0000000000000000e+00  0.0000000000000000e+00 0.0000000000000000e+00 0.0000000000000000e+00  0.0000000000000000e+00 0.0000000000000000e+00 0.0000000000000000e+00  0.0000000000000000e+00 0.0000000000000000e+00 0.0000000000000000e+00  0.0000000000000000e+00 0.0000000000000000e+00 0.0000000000000000e+00  0.0000000000000000e+00 0.0000000000000000e+00 0.0000000000000000e+00  0.0000000000000000e+00 0.0000000000000000e+00 0.0000000000000000e+00  0.0000000000000000e+00 0.0000000000000000e+00 0.0000000000000000e+00  0.0000000000000000e+00 0.0000000000000000e+00 0.0000000000000000e+00  0.0000000000000000e+00 0.0000000000000000e+00 0.0000000000000000e+00  0.0000000000000000e+00 0.0000000000000000e+00 0.0000000000000000e+00  0.0000000000000000e+00 0.0000000000000000e+00 0.0000000000000000e+00  0.0000000000000000e+00 0.0000000000000000e+00 0.0000000000000000e+00  0.0000000000000000e+00 0.0000000000000000e+00 0.0000000000000000e+00  0.0000000000000000e+00 0.0000000000000000e+00 0.0000000000000000e+00  0.0000000000000000e+00 0.0000000000000000e+00 0.0000000000000000e+00  -1.6685775779166699e-05 1.7319064170198657e-05 0.0000000000000000e+00  -2.7638725103322866e-05 2.9863894270117246e-05 0.0000000000000000e+00  -3.6668986627598457e-05 4.0513975788615230e-05 0.0000000000000000e+00  -4.4667260629565745e-05 5.0130142561661541e-05 0.0000000000000000e+00  -5.1863819996994677e-05 5.9016773112996235e-05 0.0000000000000000e+00  -5.8474445012410781e-05 6.7421743820990644e-05 0.0000000000000000e+00  -6.4676952792989541e-05 7.5462057580683796e-05 0.0000000000000000e+00  -7.0381677077523770e-05 8.3254741099413580e-05 0.0000000000000000e+00  -7.5738759101593527e-05 9.0842409626935435e-05 0.0000000000000000e+00  -8.0862510413288064e-05 9.8225182912977735e-05 0.0000000000000000e+00  -8.5698240937756066e-05 1.0548975805143192e-04 0.0000000000000000e+00  -9.0330120607604549e-05 1.1258883264248845e-04 0.0000000000000000e+00  -9.4727120690948666e-05 1.1962172808540743e-04 0.0000000000000000e+00  -9.8983488008519470e-05 1.2650514397876680e-04 0.0000000000000000e+00  -1.0306767928813026e-04 1.3333444942820389e-04 0.0000000000000000e+00  -1.0704483441019781e-04 1.4005722887132575e-04 0.0000000000000000e+00  -1.1085395644213955e-04 1.4670305011845356e-04 0.0000000000000000e+00  -1.1455371522130685e-04 1.5325476671904705e-04 0.0000000000000000e+00  -1.1816503533350736e-04 1.5976267608630454e-04 0.0000000000000000e+00  -1.2165356643450017e-04 1.6617579140295799e-04 0.0000000000000000e+00  -1.2504850620461962e-04 1.7252672440137829e-04 0.0000000000000000e+00  -1.2835282516404398e-04 1.7881725630339518e-04 0.0000000000000000e+00  -1.3157523918666897e-04 1.8503659638476340e-04 0.0000000000000000e+00  -1.3471356071155762e-04 1.9119379977656532e-04 0.0000000000000000e+00  -1.3777252474869671e-04 1.9727749873921512e-04 0.0000000000000000e+00  -1.4075234613579923e-04 2.0329369449057516e-04 0.0000000000000000e+00  -1.4365798263375889e-04 2.0923164126772427e-04 0.0000000000000000e+00  -1.4650596558589480e-04 2.1513253345696891e-04 0.0000000000000000e+00  -1.4925386756732908e-04 2.2095833040445094e-04 0.0000000000000000e+00  -1.5192497096374482e-04 2.2671764195883085e-04 0.0000000000000000e+00  -1.5452212895145908e-04 2.3242136508265206e-04 0.0000000000000000e+00  -1.5705014209166067e-04 2.3805114829038366e-04 0.0000000000000000e+00  -1.5948813779922665e-04 2.4361971648734562e-04 0.0000000000000000e+00  -1.6185516541089294e-04 2.4911539178201037e-04 0.0000000000000000e+00  -1.6414005667947018e-04 2.5456740359388838e-04 0.0000000000000000e+00  -1.6632695302191367e-04 2.5995570517308190e-04 0.0000000000000000e+00  -1.6843229885733053e-04 2.6528605644014091e-04 0.0000000000000000e+00  -1.7045761930737987e-04 2.7054009453712227e-04 0.0000000000000000e+00  -1.7237731640316778e-04 2.7575677540418183e-04 0.0000000000000000e+00  -1.7421763281744328e-04 2.8091278666482039e-04 0.0000000000000000e+00  -1.7595275902278362e-04 2.8602833551234373e-04 0.0000000000000000e+00  -1.7759681646823579e-04 2.9107492537928383e-04 0.0000000000000000e+00  -1.8049898192527348e-04 3.0078855281559855e-04 0.0000000000000000e+00  -1.8177372776770188e-04 3.0544816984832051e-04 0.0000000000000000e+00  -1.8295223959811761e-04 3.1010394575061410e-04 0.0000000000000000e+00  -1.8404177881502909e-04 3.1471790592841990e-04 0.0000000000000000e+00  -1.8504145198217377e-04 3.1933683124058952e-04 0.0000000000000000e+00  -1.8593177196920416e-04 3.2394518599461377e-04 0.0000000000000000e+00  -1.8673517344982904e-04 3.2851387080381703e-04 0.0000000000000000e+00  -1.8743766461831035e-04 3.3308611007233196e-04 0.0000000000000000e+00  -1.8804306651187840e-04 3.3765872474907473e-04 0.0000000000000000e+00  -1.8853223744594365e-04 3.4223543341284064e-04 0.0000000000000000e+00  -1.8894150588534098e-04 3.4679120963979976e-04 0.0000000000000000e+00  -1.8944786194229139e-04 3.5594237516130452e-04 0.0000000000000000e+00  -1.8955205645313612e-04 3.6052779681603083e-04 0.0000000000000000e+00  -1.8956328417475134e-04 3.6514514815967267e-04 0.0000000000000000e+00  -1.8947701702530767e-04 3.6975998496516726e-04 0.0000000000000000e+00  -1.8930014156485635e-04 3.7441766205145016e-04 0.0000000000000000e+00  -1.8902853135749080e-04 3.7910504304361199e-04 0.0000000000000000e+00  -1.8866036819888233e-04 3.8379889173859174e-04 0.0000000000000000e+00  -1.8821668849737701e-04 3.8854006343560301e-04 0.0000000000000000e+00  -1.8769380939981774e-04 3.9332107747563130e-04 0.0000000000000000e+00  -1.8706998024134948e-04 3.9813756107469404e-04 0.0000000000000000e+00  -1.8638425073867391e-04 4.0297477070424522e-04 0.0000000000000000e+00  -1.8473368655170350e-04 4.1311217038640565e-04 0.0000000000000000e+00  -1.8376676800748327e-04 4.1841172105136487e-04 0.0000000000000000e+00  -1.8273293769171124e-04 4.2379728518235880e-04 0.0000000000000000e+00  -1.8162409943378431e-04 4.2924068110153862e-04 0.0000000000000000e+00  -1.8047270638723152e-04 4.3476639541782826e-04 0.0000000000000000e+00  -1.7924157392500714e-04 4.4035505148733975e-04 0.0000000000000000e+00  -1.7796958463671823e-04 4.4603487435076355e-04 0.0000000000000000e+00  -1.7664549494190329e-04 4.5179702908697088e-04 0.0000000000000000e+00  -1.7527997106624898e-04 4.5764185982442911e-04 0.0000000000000000e+00  -1.7386727342576466e-04 4.6355879738094706e-04 0.0000000000000000e+00  -1.7244012464632874e-04 4.6956471341989353e-04 0.0000000000000000e+00  -1.7097707953841511e-04 4.7565343638981711e-04 0.0000000000000000e+00  -1.6950122485100009e-04 4.8182783701216899e-04 0.0000000000000000e+00  -1.6801272538320865e-04 4.8808917890995291e-04 0.0000000000000000e+00  -1.6651238239230994e-04 4.9443679868813734e-04 0.0000000000000000e+00  -1.6500022899996138e-04 5.0086331522662534e-04 0.0000000000000000e+00  -1.6348900776009398e-04 5.0736527362707214e-04 0.0000000000000000e+00  -1.6199409158807449e-04 5.1395470580105861e-04 0.0000000000000000e+00  -1.6051315477608370e-04 5.2062233542999041e-04 0.0000000000000000e+00  -1.5904793345063758e-04 5.2737141846476078e-04 0.0000000000000000e+00  -1.5760491661950365e-04 5.3420339055134292e-04 0.0000000000000000e+00  -1.5618030111313303e-04 5.4111655769714803e-04 0.0000000000000000e+00  -1.5480273767461535e-04 5.4809522841828078e-04 0.0000000000000000e+00  -1.5344773684786321e-04 5.5515620918845465e-04 0.0000000000000000e+00  -1.5214475498444218e-04 5.6227796399223253e-04 0.0000000000000000e+00  -1.5087823206010858e-04 5.6947868890089434e-04 0.0000000000000000e+00  -1.4966168654196717e-04 5.7674804782936739e-04 0.0000000000000000e+00  -1.4849994842377684e-04 5.8406995828226343e-04 0.0000000000000000e+00  -1.4739637435383959e-04 5.9145483945862473e-04 0.0000000000000000e+00  -1.4634435450012283e-04 5.9891310372128239e-04 0.0000000000000000e+00  -1.4536881730560933e-04 6.0640906312617510e-04 0.0000000000000000e+00  -1.4444536208874074e-04 6.1397417806424086e-04 0.0000000000000000e+00  -1.4359809441533120e-04 6.2158791339508932e-04 0.0000000000000000e+00  -1.4281971302393219e-04 6.2926753451292749e-04 0.0000000000000000e+00  -1.4211688217461471e-04 6.3697349459988415e-04 0.0000000000000000e+00  -1.4148759177784161e-04 6.4472342212090977e-04 0.0000000000000000e+00  -1.4094057780104663e-04 6.5252523861522485e-04 0.0000000000000000e+00  -1.4047348276494665e-04 6.6035648845156952e-04 0.0000000000000000e+00  -1.4008949910014262e-04 6.6822785986442215e-04 0.0000000000000000e+00  -1.3978025865367036e-04 6.7613367370166269e-04 0.0000000000000000e+00  -1.3958333328691836e-04 6.8406747679583383e-04 0.0000000000000000e+00  -1.3943920500790301e-04 6.9202122544354992e-04 0.0000000000000000e+00  -1.3592232661752327e-04 7.0000000000000010e-04 0.0000000000000000e+00  -1.3247547712965586e-04 7.0000000000000010e-04 0.0000000000000000e+00  -1.2906181804056360e-04 7.0000000000000010e-04 0.0000000000000000e+00  -1.2566753468490742e-04 7.0000000000000010e-04 0.0000000000000000e+00  -1.2228230013977244e-04 7.0000000000000010e-04 0.0000000000000000e+00  -1.1892736544635685e-04 7.0000000000000010e-04 0.0000000000000000e+00  -1.1557064245495429e-04 7.0000000000000010e-04 0.0000000000000000e+00  -1.1221600159875833e-04 7.0000000000000010e-04 0.0000000000000000e+00  -1.0885680213259317e-04 7.0000000000000010e-04 0.0000000000000000e+00  -1.0551230680722752e-04 7.0000000000000010e-04 0.0000000000000000e+00  -1.0215438596988463e-04 7.0000000000000010e-04 0.0000000000000000e+00  -9.8789995993028590e-05 7.0000000000000010e-04 0.0000000000000000e+00  -9.5417610801281838e-05 7.0000000000000010e-04 0.0000000000000000e+00  -9.2037153916394942e-05 7.0000000000000010e-04 0.0000000000000000e+00  -8.8647333446309538e-05 7.0000000000000010e-04 0.0000000000000000e+00  -8.5241948768523428e-05 7.0000000000000010e-04 0.0000000000000000e+00  -8.1825141940324847e-05 7.0000000000000010e-04 0.0000000000000000e+00  -7.8397002529294592e-05 7.0000000000000010e-04 0.0000000000000000e+00  -7.4957394674099359e-05 7.0000000000000010e-04 0.0000000000000000e+00  -7.1507142687357730e-05 7.0000000000000010e-04 0.0000000000000000e+00  -6.8046615445384196e-05 7.0000000000000010e-04 0.0000000000000000e+00  -6.4576374727640858e-05 7.0000000000000010e-04 0.0000000000000000e+00  -6.1098638218211234e-05 7.0000000000000010e-04 0.0000000000000000e+00  -5.7617026700433755e-05 7.0000000000000010e-04 0.0000000000000000e+00  -5.4128008305782312e-05 7.0000000000000010e-04 0.0000000000000000e+00  -5.0638578626563180e-05 7.0000000000000010e-04 0.0000000000000000e+00  -4.7152692455249585e-05 7.0000000000000010e-04 0.0000000000000000e+00  -4.3667587031420348e-05 7.0000000000000010e-04 0.0000000000000000e+00  -4.0197640346000537e-05 7.0000000000000010e-04 0.0000000000000000e+00  -3.6737842924703281e-05 7.0000000000000010e-04 0.0000000000000000e+00  -3.3290123385350109e-05 7.0000000000000010e-04 0.0000000000000000e+00  -2.9865122276922450e-05 7.0000000000000010e-04 0.0000000000000000e+00  -2.6461265045604302e-05 7.0000000000000010e-04 0.0000000000000000e+00  -2.3075028178138288e-05 7.0000000000000010e-04 0.0000000000000000e+00  -1.9739106879646716e-05 7.0000000000000010e-04 0.0000000000000000e+00  -1.6430166595687891e-05 7.0000000000000010e-04 0.0000000000000000e+00  -1.3162613979912088e-05 7.0000000000000010e-04 0.0000000000000000e+00  -9.9416351327332127e-06 7.0000000000000010e-04 0.0000000000000000e+00  -6.7581969261054133e-06 7.0000000000000010e-04 0.0000000000000000e+00  -3.6409463513186214e-06 7.0000000000000010e-04 0.0000000000000000e+00  -5.8624072972253704e-07 7.0000000000000010e-04 0.0000000000000000e+00  2.3992664122967370e-06 7.0000000000000010e-04 0.0000000000000000e+00  5.3265437031694426e-06 7.0000000000000010e-04 0.0000000000000000e+00  8.1924825436765885e-06 7.0000000000000010e-04 0.0000000000000000e+00  1.0961843094139733e-05 7.0000000000000010e-04 0.0000000000000000e+00  1.3670463036053359e-05 7.0000000000000010e-04 0.0000000000000000e+00  1.6298854254339174e-05 7.0000000000000010e-04 0.0000000000000000e+00  1.8811366782669456e-05 7.0000000000000010e-04 0.0000000000000000e+00  2.1251399857830912e-05 7.0000000000000010e-04 0.0000000000000000e+00  2.3616470714205372e-05 7.0000000000000010e-04 0.0000000000000000e+00  2.5883396002015534e-05 7.0000000000000010e-04 0.0000000000000000e+00  2.8041267517676846e-05 7.0000000000000010e-04 0.0000000000000000e+00  3.0105977538042352e-05 7.0000000000000010e-04 0.0000000000000000e+00  3.2088003392424384e-05 7.0000000000000010e-04 0.0000000000000000e+00  3.3962049222973663e-05 7.0000000000000010e-04 0.0000000000000000e+00  3.5736557501446068e-05 7.0000000000000010e-04 0.0000000000000000e+00  3.7422389449006886e-05 7.0000000000000010e-04 0.0000000000000000e+00  3.9021959554511774e-05 7.0000000000000010e-04 0.0000000000000000e+00  4.0499056273565004e-05 7.0000000000000010e-04 0.0000000000000000e+00  4.1902473959004652e-05 7.0000000000000010e-04 0.0000000000000000e+00  4.3207712055301063e-05 7.0000000000000010e-04 0.0000000000000000e+00  4.4422660183498563e-05 7.0000000000000010e-04 0.0000000000000000e+00  4.5539554153493349e-05 7.0000000000000010e-04 0.0000000000000000e+00  4.6588628597610387e-05 7.0000000000000010e-04 0.0000000000000000e+00  4.7559683235844193e-05 7.0000000000000010e-04 0.0000000000000000