<?xml version="1.0"?>
<VTKFile type="UnstructuredGrid"  version="0.1"  >
<UnstructuredGrid>
<Piece  NumberOfPoints="15540" NumberOfCells="30546">
<Points>
<DataArray  type="Float64"  NumberOfComponents="3"  format="ascii">0 0 0  -0.5 -0.5 0  0.5 -0.5 0  0.5 0 0  0.5 0.5 0  -0.5 0.5 0  -0.5 0.0001 0  -0.5 -0.0001 0  0.5 0.1 0  0.5 -0.1 0  -0.5 -0.1 0  -0.5 0.1 0  -0.4900000000000277 -0.5 0  -0.4800000000000555 -0.5 0  -0.4700000000000832 -0.5 0  -0.4600000000001109 -0.5 0  -0.4500000000001387 -0.5 0  -0.4400000000001664 -0.5 0  -0.4300000000001942 -0.5 0  -0.4200000000002219 -0.5 0  -0.4100000000002497 -0.5 0  -0.4000000000002774 -0.5 0  -0.3900000000003052 -0.5 0  -0.3800000000003328 -0.5 0  -0.3700000000003606 -0.5 0  -0.3600000000003883 -0.5 0  -0.3500000000004161 -0.5 0  -0.3400000000004438 -0.5 0  -0.3300000000004716 -0.5 0  -0.3200000000004993 -0.5 0  -0.3100000000005271 -0.5 0  -0.3000000000005548 -0.5 0  -0.2900000000005825 -0.5 0  -0.2800000000006103 -0.5 0  -0.2700000000006381 -0.5 0  -0.2600000000006658 -0.5 0  -0.2500000000006935 -0.5 0  -0.2400000000007212 -0.5 0  -0.230000000000749 -0.5 0  -0.2200000000007767 -0.5 0  -0.2100000000008044 -0.5 0  -0.2000000000008322 -0.5 0  -0.19000000000086 -0.5 0  -0.1800000000008877 -0.5 0  -0.1700000000009154 -0.5 0  -0.1600000000009431 -0.5 0  -0.1500000000009709 -0.5 0  -0.1400000000009986 -0.5 0  -0.1300000000010264 -0.5 0  -0.1200000000010541 -0.5 0  -0.1100000000010818 -0.5 0  -0.1000000000011096 -0.5 0  -0.09000000000113734 -0.5 0  -0.08000000000116503 -0.5 0  -0.07000000000119283 -0.5 0  -0.06000000000122058 -0.5 0  -0.05000000000124827 -0.5 0  -0.04000000000127607 -0.5 0  -0.03000000000130376 -0.5 0  -0.02000000000133151 -0.5 0  -0.01000000000135925 -0.5 0  -1.376121439022882e-12 -0.5 0  0.009999999998640763 -0.5 0  0.01999999999866864 -0.5 0  0.02999999999869629 -0.5 0  0.03999999999872406 -0.5 0  0.04999999999875182 -0.5 0  0.05999999999877947 -0.5 0  0.06999999999880724 -0.5 0  0.079999999998835 -0.5 0  0.08999999999886266 -0.5 0  0.09999999999889042 -0.5 0  0.1099999999989182 -0.5 0  0.1199999999989459 -0.5 0  0.1299999999989737 -0.5 0  0.1399999999990014 -0.5 0  0.1499999999990291 -0.5 0  0.1599999999990568 -0.5 0  0.1699999999990847 -0.5 0  0.1799999999991124 -0.5 0  0.1899999999991401 -0.5 0  0.1999999999991678 -0.5 0  0.2099999999991955 -0.5 0  0.2199999999992234 -0.5 0  0.2299999999992511 -0.5 0  0.2399999999992788 -0.5 0  0.2499999999993066 -0.5 0  0.2599999999993342 -0.5 0  0.269999999999362 -0.5 0  0.2799999999993897 -0.5 0  0.2899999999994175 -0.5 0  0.2999999999994452 -0.5 0  0.3099999999994729 -0.5 0  0.3199999999995007 -0.5 0  0.3299999999995284 -0.5 0  0.3399999999995562 -0.5 0  0.3499999999995839 -0.5 0  0.3599999999996116 -0.5 0  0.3699999999996393 -0.5 0  0.379999999999667 -0.5 0  0.3899999999996949 -0.5 0  0.3999999999997226 -0.5 0  0.4099999999997503 -0.5 0  0.419999999999778 -0.5 0  0.4299999999998058 -0.5 0  0.4399999999998336 -0.5 0  0.4499999999998613 -0.5 0  0.4599999999998891 -0.5 0  0.4699999999999167 -0.5 0  0.4799999999999445 -0.5 0  0.4899999999999722 -0.5 0  0.5 -0.4902110204681464 0  0.5 -0.4804459958734807 0  0.5 -0.4707048677450883 0  0.5 -0.4609875815766065 0  0.5 -0.4512940759251849 0  0.5 -0.4416242912883993 0  0.5 -0.4319781678689807 0  0.5 -0.4223556545383647 0  0.5 -0.4127566896324213 0  0.5 -0.4031812128200121 0  0.5 -0.3936291733057916 0  0.5 -0.3841005081172659 0  0.5 -0.3745951585781932 0  0.5 -0.3651130778999337 0  0.5 -0.3556541993788045 0  0.5 -0.3462184677228392 0  0.5 -0.3368058273705318 0  0.5 -0.3274162224888609 0  0.5 -0.3180495969712945 0  0.5 -0.3087058944357755 0  0.5 -0.299385058222682 0  0.5 -0.2900870313927414 0  0.5 -0.2808117567250807 0  0.5 -0.2715591844628491 0  0.5 -0.2623292564012653 0  0.5 -0.253121909553727 0  0.5 -0.2439371050851549 0  0.5 -0.2347747685524501 0  0.5 -0.2256348634421331 0  0.5 -0.2165173209784076 0  0.5 -0.207422087829958 0  0.5 -0.1983491207029381 0  0.5 -0.1892983550950482 0  0.5 -0.1802697378305253 0  0.5 -0.1712632154965152 0  0.5 -0.1622787344187354 0  0.5 -0.1533162406595534 0  0.5 -0.1443756800160514 0  0.5 -0.1354569980180493 0  0.5 -0.1265601399261414 0  0.5 -0.1176850622761093 0  0.5 -0.1088317009011999 0  0.5 -0.09166666666668973 0  0.5 -0.08333333333337943 0  0.5 -0.07500000000006915 0  0.5 -0.06666666666675886 0  0.5 -0.05833333333344858 0  0.5 -0.05000000000013693 0  0.5 -0.04166666666678191 0  0.5 -0.03333333333342643 0  0.5 -0.02500000000006916 0  0.5 -0.01666666666671188 0  0.5 -0.00833333333335548 0  0.5 0.008333333333318314 0  0.5 0.01666666666663358 0  0.5 0.02499999999994162 0  0.5 0.03333333333325101 0  0.5 0.04166666666655769 0  0.5 0.04999999999986843 0  0.5 0.05833333333322258 0  0.5 0.06666666666657715 0  0.5 0.07499999999993352 0  0.5 0.08333333333328992 0  0.5 0.09166666666664541 0  0.5 0.1088317009011616 0  0.5 0.1176850622760307 0  0.5 0.1265601399260203 0  0.5 0.1354569980178909 0  0.5 0.1443756800158549 0  0.5 0.153316240659315 0  0.5 0.1622787344184454 0  0.5 0.1712632154961752 0  0.5 0.1802697378301332 0  0.5 0.1892983550946039 0  0.5 0.1983491207024433 0  0.5 0.2074220878294123 0  0.5 0.216517320977811 0  0.5 0.2256348634414833 0  0.5 0.2347747685517479 0  0.5 0.2439371050844009 0  0.5 0.2531219095529224 0  0.5 0.2623292564004089 0  0.5 0.2715591844619371 0  0.5 0.2808117567241139 0  0.5 0.290087031391723 0  0.5 0.2993850582216101 0  0.5 0.3087058944347426 0  0.5 0.3180495969703129 0  0.5 0.3274162224879299 0  0.5 0.3368058273696494 0  0.5 0.3462184677220051 0  0.5 0.3556541993780186 0  0.5 0.3651130778991989 0  0.5 0.3745951585775107 0  0.5 0.3841005081166359 0  0.5 0.3936291733052134 0  0.5 0.4031812128194852 0  0.5 0.412756689631945 0  0.5 0.4223556545379392 0  0.5 0.431978167868607 0  0.5 0.4416242912880781 0  0.5 0.4512940759249164 0  0.5 0.4609875815763912 0  0.5 0.4707048677449264 0  0.5 0.4804459958733726 0  0.5 0.4902110204680924 0  0.4900000000000277 0.5 0  0.4800000000000555 0.5 0  0.4700000000000832 0.5 0  0.4600000000001109 0.5 0  0.4500000000001387 0.5 0  0.4400000000001664 0.5 0  0.4300000000001942 0.5 0  0.4200000000002219 0.5 0  0.4100000000002497 0.5 0  0.4000000000002774 0.5 0  0.3900000000003052 0.5 0  0.3800000000003328 0.5 0  0.3700000000003606 0.5 0  0.3600000000003883 0.5 0  0.3500000000004161 0.5 0  0.3400000000004438 0.5 0  0.3300000000004716 0.5 0  0.3200000000004993 0.5 0  0.3100000000005271 0.5 0  0.3000000000005548 0.5 0  0.2900000000005825 0.5 0  0.2800000000006103 0.5 0  0.2700000000006381 0.5 0  0.2600000000006658 0.5 0  0.2500000000006935 0.5 0  0.2400000000007212 0.5 0  0.230000000000749 0.5 0  0.2200000000007767 0.5 0  0.2100000000008044 0.5 0  0.2000000000008322 0.5 0  0.19000000000086 0.5 0  0.1800000000008877 0.5 0  0.1700000000009154 0.5 0  0.1600000000009431 0.5 0  0.1500000000009709 0.5 0  0.1400000000009986 0.5 0  0.1300000000010264 0.5 0  0.1200000000010541 0.5 0  0.1100000000010818 0.5 0  0.1000000000011096 0.5 0  0.09000000000113734 0.5 0  0.08000000000116503 0.5 0  0.07000000000119283 0.5 0  0.06000000000122058 0.5 0  0.05000000000124827 0.5 0  0.04000000000127607 0.5 0  0.03000000000130376 0.5 0  0.02000000000133151 0.5 0  0.01000000000135925 0.5 0  1.376121439022882e-12 0.5 0  -0.009999999998640763 0.5 0  -0.01999999999866864 0.5 0  -0.02999999999869629 0.5 0  -0.03999999999872406 0.5 0  -0.04999999999875182 0.5 0  -0.05999999999877947 0.5 0  -0.06999999999880724 0.5 0  -0.079999999998835 0.5 0  -0.08999999999886266 0.5 0  -0.09999999999889042 0.5 0  -0.1099999999989182 0.5 0  -0.1199999999989459 0.5 0  -0.1299999999989737 0.5 0  -0.1399999999990014 0.5 0  -0.1499999999990291 0.5 0  -0.1599999999990568 0.5 0  -0.1699999999990847 0.5 0  -0.1799999999991124 0.5 0  -0.1899999999991401 0.5 0  -0.1999999999991678 0.5 0  -0.2099999999991955 0.5 0  -0.2199999999992234 0.5 0  -0.2299999999992511 0.5 0  -0.2399999999992788 0.5 0  -0.2499999999993066 0.5 0  -0.2599999999993342 0.5 0  -0.269999999999362 0.5 0  -0.2799999999993897 0.5 0  -0.2899999999994175 0.5 0  -0.2999999999994452 0.5 0  -0.3099999999994729 0.5 0  -0.3199999999995007 0.5 0  -0.3299999999995284 0.5 0  -0.3399999999995562 0.5 0  -0.3499999999995839 0.5 0  -0.3599999999996116 0.5 0  -0.3699999999996393 0.5 0  -0.379999999999667 0.5 0  -0.3899999999996949 0.5 0  -0.3999999999997226 0.5 0  -0.4099999999997503 0.5 0  -0.419999999999778 0.5 0  -0.4299999999998058 0.5 0  -0.4399999999998336 0.5 0  -0.4499999999998613 0.5 0  -0.4599999999998891 0.5 0  -0.4699999999999167 0.5 0  -0.4799999999999445 0.5 0  -0.4899999999999722 0.5 0  -0.5 0.4902110204681464 0  -0.5 0.4804459958734807 0  -0.5 0.4707048677450883 0  -0.5 0.4609875815766065 0  -0.5 0.4512940759251849 0  -0.5 0.4416242912883993 0  -0.5 0.4319781678689807 0  -0.5 0.4223556545383647 0  -0.5 0.4127566896324213 0  -0.5 0.4031812128200121 0  -0.5 0.3936291733057916 0  -0.5 0.3841005081172659 0  -0.5 0.3745951585781932 0  -0.5 0.3651130778999337 0  -0.5 0.3556541993788045 0  -0.5 0.3462184677228392 0  -0.5 0.3368058273705318 0  -0.5 0.3274162224888609 0  -0.5 0.3180495969712945 0  -0.5 0.3087058944357755 0  -0.5 0.299385058222682 0  -0.5 0.2900870313927414 0  -0.5 0.2808117567250807 0  -0.5 0.2715591844628491 0  -0.5 0.2623292564012653 0  -0.5 0.253121909553727 0  -0.5 0.2439371050851549 0  -0.5 0.2347747685524501 0  -0.5 0.2256348634421331 0  -0.5 0.2165173209784076 0  -0.5 0.207422087829958 0  -0.5 0.1983491207029381 0  -0.5 0.1892983550950482 0  -0.5 0.1802697378305253 0  -0.5 0.1712632154965152 0  -0.5 0.1622787344187354 0  -0.5 0.1533162406595534 0  -0.5 0.1443756800160514 0  -0.5 0.1354569980180493 0  -0.5 0.1265601399261414 0  -0.5 0.1176850622761093 0  -0.5 0.1088317009011999 0  -0.5 0.09167500000001694 0  -0.5 0.08335000000003931 0  -0.5 0.07502500000006167 0  -0.5 0.06670000000008947 0  -0.5 0.05837500000011001 0  -0.5 0.0500500000001328 0  -0.5 0.0417250000001127 0  -0.5 0.03340000000008944 0  -0.5 0.02507500000006573 0  -0.5 0.01675000000004653 0  -0.5 0.008425000000027341 
[...]
<PointData  Vectors="f_20"> 
<DataArray  type="Float64"  Name="f_20"  NumberOfComponents="3" format="ascii">-5.0351274002810576e-04 1.6863607864611599e-03 0.0000000000000000e+00  0.0000000000000000e+00 0.0000000000000000e+00 0.0000000000000000e+00  0.0000000000000000e+00 0.0000000000000000e+00 0.0000000000000000e+00  -9.6556923901648206e-04 1.7565045613087201e-03 0.0000000000000000e+00  -6.9357785631202489e-04 3.4999999999999996e-03 0.0000000000000000e+00  2.2082515713945852e-04 3.5000000000000001e-03 0.0000000000000000e+00  -2.3911028489882673e-04 3.6690998380084746e-03 0.0000000000000000e+00  -1.8702847111421630e-04 -1.0053898818141965e-04 0.0000000000000000e+00  -9.4545602720915725e-04 2.0304451637958563e-03 0.0000000000000000e+00  -9.1352322184176465e-04 1.4889561854833653e-03 0.0000000000000000e+00  -1.1307922811427253e-04 -9.9749628997424427e-05 0.0000000000000000e+00  -1.1959167171543677e-04 3.6685817933304232e-03 0.0000000000000000e+00  0.0000000000000000e+00 0.0000000000000000e+00 0.0000000000000000e+00  0.0000000000000000e+00 0.0000000000000000e+00 0.0000000000000000e+00  0.0000000000000000e+00 0.0000000000000000e+00 0.0000000000000000e+00  0.0000000000000000e+00 0.0000000000000000e+00 0.0000000000000000e+00  0.0000000000000000e+00 0.0000000000000000e+00 0.0000000000000000e+00  0.0000000000000000e+00 0.0000000000000000e+00 0.0000000000000000e+00  0.0000000000000000e+00 0.0000000000000000e+00 0.0000000000000000e+00  0.0000000000000000e+00 0.0000000000000000e+00 0.0000000000000000e+00  0.0000000000000000e+00 0.0000000000000000e+00 0.0000000000000000e+00  0.0000000000000000e+00 0.0000000000000000e+00 0.0000000000000000e+00  0.0000000000000000e+00 0.0000000000000000e+00 0.0000000000000000e+00  0.0000000000000000e+00 0.0000000000000000e+00 0.0000000000000000e+00  0.0000000000000000e+00 0.0000000000000000e+00 0.0000000000000000e+00  0.0000000000000000e+00 0.0000000000000000e+00 0.0000000000000000e+00  0.0000000000000000e+00 0.0000000000000000e+00 0.0000000000000000e+00  0.0000000000000000e+00 0.0000000000000000e+00 0.0000000000000000e+00  0.0000000000000000e+00 0.0000000000000000e+00 0.0000000000000000e+00  0.0000000000000000e+00 0.0000000000000000e+00 0.0000000000000000e+00  0.0000000000000000e+00 0.0000000000000000e+00 0.0000000000000000e+00  0.0000000000000000e+00 0.0000000000000000e+00 0.0000000000000000e+00  0.0000000000000000e+00 0.0000000000000000e+00 0.0000000000000000e+00  0.0000000000000000e+00 0.0000000000000000e+00 0.0000000000000000e+00  0.0000000000000000e+00 0.0000000000000000e+00 0.0000000000000000e+00  0.0000000000000000e+00 0.0000000000000000e+00 0.0000000000000000e+00  0.0000000000000000e+00 0.0000000000000000e+00 0.0000000000000000e+00  0.0000000000000000e+00 0.0000000000000000e+00 0.0000000000000000e+00  0.0000000000000000e+00 0.0000000000000000e+00 0.0000000000000000e+00  0.0000000000000000e+00 0.0000000000000000e+00 0.0000000000000000e+00  0.0000000000000000e+00 0.0000000000000000e+00 0.0000000000000000e+00  0.0000000000000000e+00 0.0000000000000000e+00 0.0000000000000000e+00  0.0000000000000000e+00 0.0000000000000000e+00 0.0000000000000000e+00  0.0000000000000000e+00 0.0000000000000000e+00 0.0000000000000000e+00  0.0000000000000000e+00 0.0000000000000000e+00 0.0000000000000000e+00  0.0000000000000000e+00 0.0000000000000000e+00 0.0000000000000000e+00  0.0000000000000000e+00 0.0000000000000000e+00 0.0000000000000000e+00  0.0000000000000000e+00 0.0000000000000000e+00 0.0000000000000000e+00  0.0000000000000000e+00 0.0000000000000000e+00 0.0000000000000000e+00  0.0000000000000000e+00 0.0000000000000000e+00 0.0000000000000000e+00  0.0000000000000000e+00 0.0000000000000000e+00 0.0000000000000000e+00  0.0000000000000000e+00 0.0000000000000000e+00 0.0000000000000000e+00  0.0000000000000000e+00 0.0000000000000000e+00 0.0000000000000000e+00  0.0000000000000000e+00 0.0000000000000000e+00 0.0000000000000000e+00  0.0000000000000000e+00 0.0000000000000000e+00 0.0000000000000000e+00  0.0000000000000000e+00 0.0000000000000000e+00 0.0000000000000000e+00  0.0000000000000000e+00 0.0000000000000000e+00 0.0000000000000000e+00  0.0000000000000000e+00 0.0000000000000000e+00 0.0000000000000000e+00  0.0000000000000000e+00 0.0000000000000000e+00 0.0000000000000000e+00  0.0000000000000000e+00 0.0000000000000000e+00 0.0000000000000000e+00  0.0000000000000000e+00 0.0000000000000000e+00 0.0000000000000000e+00  0.0000000000000000e+00 0.0000000000000000e+00 0.0000000000000000e+00  0.0000000000000000e+00 0.0000000000000000e+00 0.0000000000000000e+00  0.0000000000000000e+00 0.0000000000000000e+00 0.0000000000000000e+00  0.0000000000000000e+00 0.0000000000000000e+00 0.0000000000000000e+00  0.0000000000000000e+00 0.0000000000000000e+00 0.0000000000000000e+00  0.0000000000000000e+00 0.0000000000000000e+00 0.0000000000000000e+00  0.0000000000000000e+00 0.0000000000000000e+00 0.0000000000000000e+00  0.0000000000000000e+00 0.0000000000000000e+00 0.0000000000000000e+00  0.0000000000000000e+00 0.0000000000000000e+00 0.0000000000000000e+00  0.0000000000000000e+00 0.0000000000000000e+00 0.0000000000000000e+00  0.0000000000000000e+00 0.0000000000000000e+00 0.0000000000000000e+00  0.0000000000000000e+00 0.0000000000000000e+00 0.0000000000000000e+00  0.0000000000000000e+00 0.0000000000000000e+00 0.0000000000000000e+00  0.0000000000000000e+00 0.0000000000000000e+00 0.0000000000000000e+00  0.0000000000000000e+00 0.0000000000000000e+00 0.0000000000000000e+00  0.0000000000000000e+00 0.0000000000000000e+00 0.0000000000000000e+00  0.0000000000000000e+00 0.0000000000000000e+00 0.0000000000000000e+00  0.0000000000000000e+00 0.0000000000000000e+00 0.0000000000000000e+00  0.0000000000000000e+00 0.0000000000000000e+00 0.0000000000000000e+00  0.0000000000000000e+00 0.0000000000000000e+00 0.0000000000000000e+00  0.0000000000000000e+00 0.0000000000000000e+00 0.0000000000000000e+00  0.0000000000000000e+00 0.0000000000000000e+00 0.0000000000000000e+00  0.0000000000000000e+00 0.0000000000000000e+00 0.0000000000000000e+00  0.0000000000000000e+00 0.0000000000000000e+00 0.0000000000000000e+00  0.0000000000000000e+00 0.0000000000000000e+00 0.0000000000000000e+00  0.0000000000000000e+00 0.0000000000000000e+00 0.0000000000000000e+00  0.0000000000000000e+00 0.0000000000000000e+00 0.0000000000000000e+00  0.0000000000000000e+00 0.0000000000000000e+00 0.0000000000000000e+00  0.0000000000000000e+00 0.0000000000000000e+00 0.0000000000000000e+00  0.0000000000000000e+00 0.0000000000000000e+00 0.0000000000000000e+00  0.0000000000000000e+00 0.0000000000000000e+00 0.0000000000000000e+00  0.0000000000000000e+00 0.0000000000000000e+00 0.0000000000000000e+00  0.0000000000000000e+00 0.0000000000000000e+00 0.0000000000000000e+00  0.0000000000000000e+00 0.0000000000000000e+00 0.0000000000000000e+00  0.0000000000000000e+00 0.0000000000000000e+00 0.0000000000000000e+00  0.0000000000000000e+00 0.0000000000000000e+00 0.0000000000000000e+00  0.0000000000000000e+00 0.0000000000000000e+00 0.0000000000000000e+00  0.0000000000000000e+00 0.0000000000000000e+00 0.0000000000000000e+00  0.0000000000000000e+00 0.0000000000000000e+00 0.0000000000000000e+00  0.0000000000000000e+00 0.0000000000000000e+00 0.0000000000000000e+00  0.0000000000000000e+00 0.0000000000000000e+00 0.0000000000000000e+00  0.0000000000000000e+00 0.0000000000000000e+00 0.0000000000000000e+00  0.0000000000000000e+00 0.0000000000000000e+00 0.0000000000000000e+00  0.0000000000000000e+00 0.0000000000000000e+00 0.0000000000000000e+00  0.0000000000000000e+00 0.0000000000000000e+00 0.0000000000000000e+00  0.0000000000000000e+00 0.0000000000000000e+00 0.0000000000000000e+00  0.0000000000000000e+00 0.0000000000000000e+00 0.0000000000000000e+00  0.0000000000000000e+00 0.0000000000000000e+00 0.0000000000000000e+00  0.0000000000000000e+00 0.0000000000000000e+00 0.0000000000000000e+00  0.0000000000000000e+00 0.0000000000000000e+00 0.0000000000000000e+00  -8.6578046274335123e-05 9.0169606789863307e-05 0.0000000000000000e+00  -1.4251844235321803e-04 1.5519090465797390e-04 0.0000000000000000e+00  -1.8822843057523066e-04 2.1027776756904213e-04 0.0000000000000000e+00  -2.2837984631271971e-04 2.5973301391138339e-04 0.0000000000000000e+00  -2.6436382148198556e-04 3.0532742341035288e-04 0.0000000000000000e+00  -2.9734926887844379e-04 3.4834249222020591e-04 0.0000000000000000e+00  -3.2826836784855288e-04 3.8940540297008536e-04 0.0000000000000000e+00  -3.5671712881744791e-04 4.2909452827042874e-04 0.0000000000000000e+00  -3.8345414897692344e-04 4.6766635390685883e-04 0.0000000000000000e+00  -4.0905683254546316e-04 5.0514576594743409e-04 0.0000000000000000e+00  -4.3328022888908929e-04 5.4196683161935775e-04 0.0000000000000000e+00  -4.5652389440861701e-04 5.7790050912792635e-04 0.0000000000000000e+00  -4.7865615861725669e-04 6.1343849685998957e-04 0.0000000000000000e+00  -5.0012190503191819e-04 6.4818712244565327e-04 0.0000000000000000e+00  -5.2077745202765765e-04 6.8261426643224943e-04 0.0000000000000000e+00  -5.4093977220426987e-04 7.1647238675267330e-04 0.0000000000000000e+00  -5.6030690738009283e-04 7.4989084300335367e-04 0.0000000000000000e+00  -5.7916095964781597e-04 7.8280953682266291e-04 0.0000000000000000e+00  -5.9760822233704853e-04 8.1546846547753409e-04 0.0000000000000000e+00  -6.1547127140902040e-04 8.4761146297709553e-04 0.0000000000000000e+00  -6.3289280244200078e-04 8.7940893402598582e-04 0.0000000000000000e+00  -6.4988879170822735e-04 9.1085947186826796e-04 0.0000000000000000e+00  -6.6648876901364987e-04 9.4191943854918779e-04 0.0000000000000000e+00  -6.8268572631565469e-04 9.7262958900265701e-04 0.0000000000000000e+00  -6.9849679312947882e-04 1.0029340423868219e-03 0.0000000000000000e+00  -7.1392035281024949e-04 1.0328627369090861e-03 0.0000000000000000e+00  -7.2897944166038517e-04 1.0623617845894305e-03 0.0000000000000000e+00  -7.4375783961514222e-04 1.0916430946225314e-03 0.0000000000000000e+00  -7.5803011832540300e-04 1.1205045993945794e-03 0.0000000000000000e+00  -7.7191285664320118e-04 1.1489985293118383e-03 0.0000000000000000e+00  -7.8542045405842562e-04 1.1771778157746511e-03 0.0000000000000000e+00  -7.9857509336828472e-04 1.2049509925687709e-03 0.0000000000000000e+00  -8.1126455434246973e-04 1.2323815032160646e-03 0.0000000000000000e+00  -8.2358899735650087e-04 1.2594110301413562e-03 0.0000000000000000e+00  -8.3548603598362502e-04 1.2861956147001614e-03 0.0000000000000000e+00  -8.4687325472201534e-04 1.3126248567079388e-03 0.0000000000000000e+00  -8.5783330348659654e-04 1.3387351009588539e-03 0.0000000000000000e+00  -8.6837513010515723e-04 1.3644308257357311e-03 0.0000000000000000e+00  -8.7836174587717592e-04 1.3899174050672179e-03 0.0000000000000000e+00  -8.8793326323511972e-04 1.4150737075989063e-03 0.0000000000000000e+00  -8.9695281275451897e-04 1.4400029198733894e-03 0.0000000000000000e+00  -9.0549264549867647e-04 1.4645617454288318e-03 0.0000000000000000e+00  -9.2055175856052237e-04 1.5117679126796886e-03 0.0000000000000000e+00  -9.2715739479420944e-04 1.5343744811310157e-03 0.0000000000000000e+00  -9.3325779844812419e-04 1.5569522481751589e-03 0.0000000000000000e+00  -9.3889090461523944e-04 1.5793015062081290e-03 0.0000000000000000e+00  -9.4405312363110691e-04 1.6016705871446061e-03 0.0000000000000000e+00  -9.4864082569176480e-04 1.6239771559148099e-03 0.0000000000000000e+00  -9.5277400071787941e-04 1.6460694950365560e-03 0.0000000000000000e+00  -9.5637770281719844e-04 1.6681756990782838e-03 0.0000000000000000e+00  -9.5947231275822942e-04 1.6902798539955041e-03 0.0000000000000000e+00  -9.6195848856592736e-04 1.7124024102252299e-03 0.0000000000000000e+00  -9.6402557556910906e-04 1.7344129527821263e-03 0.0000000000000000e+00  -9.6652302446889344e-04 1.7786373500581216e-03 0.0000000000000000e+00  -9.6699003700293081e-04 1.8008007132838339e-03 0.0000000000000000e+00  -9.6696857572113181e-04 1.8231326904875687e-03 0.0000000000000000e+00  -9.6643544332094872e-04 1.8454529995094459e-03 0.0000000000000000e+00  -9.6542489898042460e-04 1.8680007862341126e-03 0.0000000000000000e+00  -9.6391394063347470e-04 1.8907090421314576e-03 0.0000000000000000e+00  -9.6189472981681910e-04 1.9134554388178231e-03 0.0000000000000000e+00  -9.5947545103407380e-04 1.9364554348575622e-03 0.0000000000000000e+00  -9.5663604305381948e-04 1.9596704235518370e-03 0.0000000000000000e+00  -9.5326003380305220e-04 1.9830836373538607e-03 0.0000000000000000e+00  -9.4955578494525347e-04 2.0066114252286762e-03 0.0000000000000000e+00  -9.4065099297014970e-04 2.0560226248964777e-03 0.0000000000000000e+00  -9.3543974754442863e-04 2.0818988824211852e-03 0.0000000000000000e+00  -9.2986531897411556e-04 2.1082371966272373e-03 0.0000000000000000e+00  -9.2388636213676682e-04 2.1348982814599132e-03 0.0000000000000000e+00  -9.1767359616257876e-04 2.1620052596567027e-03 0.0000000000000000e+00  -9.1103036647212474e-04 2.1894562932709650e-03 0.0000000000000000e+00  -9.0416034546825577e-04 2.2174049893851962e-03 0.0000000000000000e+00  -8.9700519703315767e-04 2.2458035029974221e-03 0.0000000000000000e+00  -8.8961773451328634e-04 2.2746641922976678e-03 0.0000000000000000e+00  -8.8197265636614987e-04 2.3039200201806051e-03 0.0000000000000000e+00  -8.7424048182297668e-04 2.3336687202551104e-03 0.0000000000000000e+00  -8.6630732935155869e-04 2.3638794570915713e-03 0.0000000000000000e+00  -8.5829696616462978e-04 2.3945666766895077e-03 0.0000000000000000e+00  -8.5021205766672170e-04 2.4257374958929928e-03 0.0000000000000000e+00  -8.4205586821316388e-04 2.4573866563209726e-03 0.0000000000000000e+00  -8.3382398750331071e-04 2.4894889242591633e-03 0.0000000000000000e+00  -8.2559762961521659e-04 2.5220094439802011e-03 0.0000000000000000e+00  -8.1745122153043155e-04 2.5550197685949086e-03 0.0000000000000000e+00  -8.0937380972954107e-04 2.5884713586943383e-03 0.0000000000000000e+00  -8.0137576906847666e-04 2.6223817926656428e-03 0.0000000000000000e+00  -7.9349516126729907e-04 2.6567571411987485e-03 0.0000000000000000e+00  -7.8570850731775105e-04 2.6915858122111289e-03 0.0000000000000000e+00  -7.7817318389661197e-04 2.7267934664139478e-03 0.0000000000000000e+00  -7.7076102635545755e-04 2.7624574230090044e-03 0.0000000000000000e+00  -7.6362399617529780e-04 2.7984735793529373e-03 0.0000000000000000e+00  -7.5668800221621044e-04 2.8349289187115548e-03 0.0000000000000000e+00  -7.5002082796054236e-04 2.8717668845983230e-03 0.0000000000000000e+00  -7.4365147885688927e-04 2.9089103739843216e-03 0.0000000000000000e+00  -7.3759831266422330e-04 2.9464054718403971e-03 0.0000000000000000e+00  -7.3182771644798644e-04 2.9843091043905913e-03 0.0000000000000000e+00  -7.2647092644212907e-04 3.0224280233992181e-03 0.0000000000000000e+00  -7.2140268114330344e-04 3.0609329268587492e-03 0.0000000000000000e+00  -7.1674923686245817e-04 3.0997098156632626e-03 0.0000000000000000e+00  -7.1247482867629116e-04 3.1388514360940331e-03 0.0000000000000000e+00  -7.0861316147060672e-04 3.1781400721641079e-03 0.0000000000000000e+00  -7.0515572318804792e-04 3.2176720637481474e-03 0.0000000000000000e+00  -7.0214986631284297e-04 3.2574917953487876e-03 0.0000000000000000e+00  -6.9958212747457563e-04 3.2974714922489818e-03 0.0000000000000000e+00  -6.9747160381309844e-04 3.3376698686995074e-03 0.0000000000000000e+00  -6.9577188016174847e-04 3.3780543538502661e-03 0.0000000000000000e+00  -6.9469005571658258e-04 3.4185907383287970e-03 0.0000000000000000e+00  -6.9389757505913243e-04 3.4592295614801374e-03 0.0000000000000000e+00  -6.7591818412152517e-04 3.5000000000000001e-03 0.0000000000000000e+00  -6.5832698986913153e-04 3.5000000000000001e-03 0.0000000000000000e+00  -6.4092504441587721e-04 3.5000000000000001e-03 0.0000000000000000e+00  -6.2363901399522235e-04 3.5000000000000001e-03 0.0000000000000000e+00  -6.0641325487425764e-04 3.5000000000000001e-03 0.0000000000000000e+00  -5.8937328852084558e-04 3.5000000000000005e-03 0.0000000000000000e+00  -5.7233850324521095e-04 3.5000000000000005e-03 0.0000000000000000e+00  -5.5533421188508879e-04 3.5000000000000001e-03 0.0000000000000000e+00  -5.3832602721842944e-04 3.5000000000000001e-03 0.0000000000000000e+00  -5.2142893457194273e-04 3.5000000000000001e-03 0.0000000000000000e+00  -5.0447745113013263e-04 3.5000000000000005e-03 0.0000000000000000e+00  -4.8751913819369786e-04 3.5000000000000001e-03 0.0000000000000000e+00  -4.7054637968741011e-04 3.5000000000000001e-03 0.0000000000000000e+00  -4.5356303016312122e-04 3.5000000000000001e-03 0.0000000000000000e+00  -4.3656020492785811e-04 3.5000000000000001e-03 0.0000000000000000e+00  -4.1949902300519707e-04 3.5000000000000001e-03 0.0000000000000000e+00  -4.0240680991953889e-04 3.5000000000000001e-03 0.0000000000000000e+00  -3.8529022667629811e-04 3.5000000000000001e-03 0.0000000000000000e+00  -3.6814715811431400e-04 3.5000000000000005e-03 0.0000000000000000e+00  -3.5097775743374380e-04 3.5000000000000001e-03 0.0000000000000000e+00  -3.3378828022571753e-04 3.5000000000000001e-03 0.0000000000000000e+00  -3.1658108826410297e-04 3.5000000000000001e-03 0.0000000000000000e+00  -2.9936799070074484e-04 3.5000000000000001e-03 0.0000000000000000e+00  -2.8216987108559691e-04 3.4999999999999996e-03 0.0000000000000000e+00  -2.6496473094093741e-04 3.5000000000000001e-03 0.0000000000000000e+00  -2.4779326420216536e-04 3.5000000000000001e-03 0.0000000000000000e+00  -2.3067543827601887e-04 3.5000000000000001e-03 0.0000000000000000e+00  -2.1359255433765930e-04 3.5000000000000001e-03 0.0000000000000000e+00  -1.9662762830443834e-04 3.4999999999999996e-03 0.0000000000000000e+00  -1.7974809941654534e-04 3.5000000000000001e-03 0.0000000000000000e+00  -1.6296350294323886e-04 3.5000000000000001e-03 0.0000000000000000e+00  -1.4633123540606718e-04 3.5000000000000001e-03 0.0000000000000000e+00  -1.2983747652489016e-04 3.5000000000000001e-03 0.0000000000000000e+00  -1.1346109126230658e-04 3.5000000000000001e-03 0.0000000000000000e+00  -9.7378656306650670e-05 3.5000000000000001e-03 0.0000000000000000e+00  -8.1459560051852368e-05 3.5000000000000001e-03 0.0000000000000000e+00  -6.5779310618254921e-05 3.5000000000000001e-03 0.0000000000000000e+00  -5.0361505613228499e-05 3.5000000000000001e-03 0.0000000000000000e+00  -3.5155341048613380e-05 3.5000000000000001e-03 0.0000000000000000e+00  -2.0308699968945845e-05 3.5000000000000001e-03 0.0000000000000000e+00  -5.7990173037232853e-06 3.5000000000000001e-03 0.0000000000000000e+00  8.3435884624870210e-06 3.5000000000000001e-03 0.0000000000000000e+00  2.2179808964873918e-05 3.5000000000000001e-03 0.0000000000000000e+00  3.5695478408949496e-05 3.5000000000000001e-03 0.0000000000000000e+00  4.8714402563395116e-05 3.5000000000000001e-03 0.0000000000000000e+00  6.1422172046286989e-05 3.5000000000000005e-03 0.0000000000000000e+00  7.3723162231209354e-05 3.5000000000000001e-03 0.0000000000000000e+00  8.5441424859896420e-05 3.5000000000000001e-03 0.0000000000000000e+00  9.6798251941018860e-05 3.5000000000000005e-03 0.0000000000000000e+00  1.0778304685483874e-04 3.5000000000000001e-03 0.0000000000000000e+00  1.1828361232583764e-04 3.5000000000000001e-03 0.0000000000000000e+00  1.2824951558359612e-04 3.5000000000000005e-03 0.0000000000000000e+00  1.3776139469729240e-04 3.5000000000000001e-03 0.0000000000000000e+00  1.4687328037188744e-04 3.5000000000000001e-03 0.0000000000000000e+00  1.5546183938932985e-04 3.5000000000000001e-03 0.0000000000000000e+00  1.6357252478341067e-04 3.5000000000000005e-03 0.0000000000000000e+00  1.7125883621993597e-04 3.5000000000000001e-03 0.0000000000000000e+00  1.7853371622628437e-04 3.5000000000000001e-03 0.0000000000000000e+00  1.8522513145779061e-04 3.5000000000000001e-03 0.0000000000000000e+00  1.9156836824626419e-04 3.4999999999999996e-03 0.0000000000000000e+00  1.9744733274847925e-04 3.5000000000000001e-03 0.0000000000000000e+00  2.0290093039040952e-04 3.5000000000000005e-03 0.0000000000000000e+00  2.0789381761481351e-04 3.5000000000000001e-03 0.0000000000000000e+00  2.1256994400726842e-04 3.5000000000000001e-03 0.0000000000000000e+00  2.1688177217221401e-04 3.5000000000000001e-03 0.0000000000000000