<?xml version="1.0"?>
<VTKFile type="UnstructuredGrid"  version="0.1"  >
<UnstructuredGrid>
<Piece  NumberOfPoints="15540" NumberOfCells="30546">
<Points>
<DataArray  type="Float64"  NumberOfComponents="3"  format="ascii">0 0 0  -0.5 -0.5 0  0.5 -0.5 0  0.5 0 0  0.5 0.5 0  -0.5 0.5 0  -0.5 0.0001 0  -0.5 -0.0001 0  0.5 0.1 0  0.5 -0.1 0  -0.5 -0.1 0  -0.5 0.1 0  -0.4900000000000277 -0.5 0  -0.4800000000000555 -0.5 0  -0.4700000000000832 -0.5 0  -0.4600000000001109 -0.5 0  -0.4500000000001387 -0.5 0  -0.4400000000001664 -0.5 0  -0.4300000000001942 -0.5 0  -0.4200000000002219 -0.5 0  -0.4100000000002497 -0.5 0  -0.4000000000002774 -0.5 0  -0.3900000000003052 -0.5 0  -0.3800000000003328 -0.5 0  -0.3700000000003606 -0.5 0  -0.3600000000003883 -0.5 0  -0.3500000000004161 -0.5 0  -0.3400000000004438 -0.5 0  -0.3300000000004716 -0.5 0  -0.3200000000004993 -0.5 0  -0.3100000000005271 -0.5 0  -0.3000000000005548 -0.5 0  -0.2900000000005825 -0.5 0  -0.2800000000006103 -0.5 0  -0.2700000000006381 -0.5 0  -0.2600000000006658 -0.5 0  -0.2500000000006935 -0.5 0  -0.2400000000007212 -0.5 0  -0.230000000000749 -0.5 0  -0.2200000000007767 -0.5 0  -0.2100000000008044 -0.5 0  -0.2000000000008322 -0.5 0  -0.19000000000086 -0.5 0  -0.1800000000008877 -0.5 0  -0.1700000000009154 -0.5 0  -0.1600000000009431 -0.5 0  -0.1500000000009709 -0.5 0  -0.1400000000009986 -0.5 0  -0.1300000000010264 -0.5 0  -0.1200000000010541 -0.5 0  -0.1100000000010818 -0.5 0  -0.1000000000011096 -0.5 0  -0.09000000000113734 -0.5 0  -0.08000000000116503 -0.5 0  -0.07000000000119283 -0.5 0  -0.06000000000122058 -0.5 0  -0.05000000000124827 -0.5 0  -0.04000000000127607 -0.5 0  -0.03000000000130376 -0.5 0  -0.02000000000133151 -0.5 0  -0.01000000000135925 -0.5 0  -1.376121439022882e-12 -0.5 0  0.009999999998640763 -0.5 0  0.01999999999866864 -0.5 0  0.02999999999869629 -0.5 0  0.03999999999872406 -0.5 0  0.04999999999875182 -0.5 0  0.05999999999877947 -0.5 0  0.06999999999880724 -0.5 0  0.079999999998835 -0.5 0  0.08999999999886266 -0.5 0  0.09999999999889042 -0.5 0  0.1099999999989182 -0.5 0  0.1199999999989459 -0.5 0  0.1299999999989737 -0.5 0  0.1399999999990014 -0.5 0  0.1499999999990291 -0.5 0  0.1599999999990568 -0.5 0  0.1699999999990847 -0.5 0  0.1799999999991124 -0.5 0  0.1899999999991401 -0.5 0  0.1999999999991678 -0.5 0  0.2099999999991955 -0.5 0  0.2199999999992234 -0.5 0  0.2299999999992511 -0.5 0  0.2399999999992788 -0.5 0  0.2499999999993066 -0.5 0  0.2599999999993342 -0.5 0  0.269999999999362 -0.5 0  0.2799999999993897 -0.5 0  0.2899999999994175 -0.5 0  0.2999999999994452 -0.5 0  0.3099999999994729 -0.5 0  0.3199999999995007 -0.5 0  0.3299999999995284 -0.5 0  0.3399999999995562 -0.5 0  0.3499999999995839 -0.5 0  0.3599999999996116 -0.5 0  0.3699999999996393 -0.5 0  0.379999999999667 -0.5 0  0.3899999999996949 -0.5 0  0.3999999999997226 -0.5 0  0.4099999999997503 -0.5 0  0.419999999999778 -0.5 0  0.4299999999998058 -0.5 0  0.4399999999998336 -0.5 0  0.4499999999998613 -0.5 0  0.4599999999998891 -0.5 0  0.4699999999999167 -0.5 0  0.4799999999999445 -0.5 0  0.4899999999999722 -0.5 0  0.5 -0.4902110204681464 0  0.5 -0.4804459958734807 0  0.5 -0.4707048677450883 0  0.5 -0.4609875815766065 0  0.5 -0.4512940759251849 0  0.5 -0.4416242912883993 0  0.5 -0.4319781678689807 0  0.5 -0.4223556545383647 0  0.5 -0.4127566896324213 0  0.5 -0.4031812128200121 0  0.5 -0.3936291733057916 0  0.5 -0.3841005081172659 0  0.5 -0.3745951585781932 0  0.5 -0.3651130778999337 0  0.5 -0.3556541993788045 0  0.5 -0.3462184677228392 0  0.5 -0.3368058273705318 0  0.5 -0.3274162224888609 0  0.5 -0.3180495969712945 0  0.5 -0.3087058944357755 0  0.5 -0.299385058222682 0  0.5 -0.2900870313927414 0  0.5 -0.2808117567250807 0  0.5 -0.2715591844628491 0  0.5 -0.2623292564012653 0  0.5 -0.253121909553727 0  0.5 -0.2439371050851549 0  0.5 -0.2347747685524501 0  0.5 -0.2256348634421331 0  0.5 -0.2165173209784076 0  0.5 -0.207422087829958 0  0.5 -0.1983491207029381 0  0.5 -0.1892983550950482 0  0.5 -0.1802697378305253 0  0.5 -0.1712632154965152 0  0.5 -0.1622787344187354 0  0.5 -0.1533162406595534 0  0.5 -0.1443756800160514 0  0.5 -0.1354569980180493 0  0.5 -0.1265601399261414 0  0.5 -0.1176850622761093 0  0.5 -0.1088317009011999 0  0.5 -0.09166666666668973 0  0.5 -0.08333333333337943 0  0.5 -0.07500000000006915 0  0.5 -0.06666666666675886 0  0.5 -0.05833333333344858 0  0.5 -0.05000000000013693 0  0.5 -0.04166666666678191 0  0.5 -0.03333333333342643 0  0.5 -0.02500000000006916 0  0.5 -0.01666666666671188 0  0.5 -0.00833333333335548 0  0.5 0.008333333333318314 0  0.5 0.01666666666663358 0  0.5 0.02499999999994162 0  0.5 0.03333333333325101 0  0.5 0.04166666666655769 0  0.5 0.04999999999986843 0  0.5 0.05833333333322258 0  0.5 0.06666666666657715 0  0.5 0.07499999999993352 0  0.5 0.08333333333328992 0  0.5 0.09166666666664541 0  0.5 0.1088317009011616 0  0.5 0.1176850622760307 0  0.5 0.1265601399260203 0  0.5 0.1354569980178909 0  0.5 0.1443756800158549 0  0.5 0.153316240659315 0  0.5 0.1622787344184454 0  0.5 0.1712632154961752 0  0.5 0.1802697378301332 0  0.5 0.1892983550946039 0  0.5 0.1983491207024433 0  0.5 0.2074220878294123 0  0.5 0.216517320977811 0  0.5 0.2256348634414833 0  0.5 0.2347747685517479 0  0.5 0.2439371050844009 0  0.5 0.2531219095529224 0  0.5 0.2623292564004089 0  0.5 0.2715591844619371 0  0.5 0.2808117567241139 0  0.5 0.290087031391723 0  0.5 0.2993850582216101 0  0.5 0.3087058944347426 0  0.5 0.3180495969703129 0  0.5 0.3274162224879299 0  0.5 0.3368058273696494 0  0.5 0.3462184677220051 0  0.5 0.3556541993780186 0  0.5 0.3651130778991989 0  0.5 0.3745951585775107 0  0.5 0.3841005081166359 0  0.5 0.3936291733052134 0  0.5 0.4031812128194852 0  0.5 0.412756689631945 0  0.5 0.4223556545379392 0  0.5 0.431978167868607 0  0.5 0.4416242912880781 0  0.5 0.4512940759249164 0  0.5 0.4609875815763912 0  0.5 0.4707048677449264 0  0.5 0.4804459958733726 0  0.5 0.4902110204680924 0  0.4900000000000277 0.5 0  0.4800000000000555 0.5 0  0.4700000000000832 0.5 0  0.4600000000001109 0.5 0  0.4500000000001387 0.5 0  0.4400000000001664 0.5 0  0.4300000000001942 0.5 0  0.4200000000002219 0.5 0  0.4100000000002497 0.5 0  0.4000000000002774 0.5 0  0.3900000000003052 0.5 0  0.3800000000003328 0.5 0  0.3700000000003606 0.5 0  0.3600000000003883 0.5 0  0.3500000000004161 0.5 0  0.3400000000004438 0.5 0  0.3300000000004716 0.5 0  0.3200000000004993 0.5 0  0.3100000000005271 0.5 0  0.3000000000005548 0.5 0  0.2900000000005825 0.5 0  0.2800000000006103 0.5 0  0.2700000000006381 0.5 0  0.2600000000006658 0.5 0  0.2500000000006935 0.5 0  0.2400000000007212 0.5 0  0.230000000000749 0.5 0  0.2200000000007767 0.5 0  0.2100000000008044 0.5 0  0.2000000000008322 0.5 0  0.19000000000086 0.5 0  0.1800000000008877 0.5 0  0.1700000000009154 0.5 0  0.1600000000009431 0.5 0  0.1500000000009709 0.5 0  0.1400000000009986 0.5 0  0.1300000000010264 0.5 0  0.1200000000010541 0.5 0  0.1100000000010818 0.5 0  0.1000000000011096 0.5 0  0.09000000000113734 0.5 0  0.08000000000116503 0.5 0  0.07000000000119283 0.5 0  0.06000000000122058 0.5 0  0.05000000000124827 0.5 0  0.04000000000127607 0.5 0  0.03000000000130376 0.5 0  0.02000000000133151 0.5 0  0.01000000000135925 0.5 0  1.376121439022882e-12 0.5 0  -0.009999999998640763 0.5 0  -0.01999999999866864 0.5 0  -0.02999999999869629 0.5 0  -0.03999999999872406 0.5 0  -0.04999999999875182 0.5 0  -0.05999999999877947 0.5 0  -0.06999999999880724 0.5 0  -0.079999999998835 0.5 0  -0.08999999999886266 0.5 0  -0.09999999999889042 0.5 0  -0.1099999999989182 0.5 0  -0.1199999999989459 0.5 0  -0.1299999999989737 0.5 0  -0.1399999999990014 0.5 0  -0.1499999999990291 0.5 0  -0.1599999999990568 0.5 0  -0.1699999999990847 0.5 0  -0.1799999999991124 0.5 0  -0.1899999999991401 0.5 0  -0.1999999999991678 0.5 0  -0.2099999999991955 0.5 0  -0.2199999999992234 0.5 0  -0.2299999999992511 0.5 0  -0.2399999999992788 0.5 0  -0.2499999999993066 0.5 0  -0.2599999999993342 0.5 0  -0.269999999999362 0.5 0  -0.2799999999993897 0.5 0  -0.2899999999994175 0.5 0  -0.2999999999994452 0.5 0  -0.3099999999994729 0.5 0  -0.3199999999995007 0.5 0  -0.3299999999995284 0.5 0  -0.3399999999995562 0.5 0  -0.3499999999995839 0.5 0  -0.3599999999996116 0.5 0  -0.3699999999996393 0.5 0  -0.379999999999667 0.5 0  -0.3899999999996949 0.5 0  -0.3999999999997226 0.5 0  -0.4099999999997503 0.5 0  -0.419999999999778 0.5 0  -0.4299999999998058 0.5 0  -0.4399999999998336 0.5 0  -0.4499999999998613 0.5 0  -0.4599999999998891 0.5 0  -0.4699999999999167 0.5 0  -0.4799999999999445 0.5 0  -0.4899999999999722 0.5 0  -0.5 0.4902110204681464 0  -0.5 0.4804459958734807 0  -0.5 0.4707048677450883 0  -0.5 0.4609875815766065 0  -0.5 0.4512940759251849 0  -0.5 0.4416242912883993 0  -0.5 0.4319781678689807 0  -0.5 0.4223556545383647 0  -0.5 0.4127566896324213 0  -0.5 0.4031812128200121 0  -0.5 0.3936291733057916 0  -0.5 0.3841005081172659 0  -0.5 0.3745951585781932 0  -0.5 0.3651130778999337 0  -0.5 0.3556541993788045 0  -0.5 0.3462184677228392 0  -0.5 0.3368058273705318 0  -0.5 0.3274162224888609 0  -0.5 0.3180495969712945 0  -0.5 0.3087058944357755 0  -0.5 0.299385058222682 0  -0.5 0.2900870313927414 0  -0.5 0.2808117567250807 0  -0.5 0.2715591844628491 0  -0.5 0.2623292564012653 0  -0.5 0.253121909553727 0  -0.5 0.2439371050851549 0  -0.5 0.2347747685524501 0  -0.5 0.2256348634421331 0  -0.5 0.2165173209784076 0  -0.5 0.207422087829958 0  -0.5 0.1983491207029381 0  -0.5 0.1892983550950482 0  -0.5 0.1802697378305253 0  -0.5 0.1712632154965152 0  -0.5 0.1622787344187354 0  -0.5 0.1533162406595534 0  -0.5 0.1443756800160514 0  -0.5 0.1354569980180493 0  -0.5 0.1265601399261414 0  -0.5 0.1176850622761093 0  -0.5 0.1088317009011999 0  -0.5 0.09167500000001694 0  -0.5 0.08335000000003931 0  -0.5 0.07502500000006167 0  -0.5 0.06670000000008947 0  -0.5 0.05837500000011001 0  -0.5 0.0500500000001328 0  -0.5 0.0417250000001127 0  -0.5 0.03340000000008944 0  -0.5 0.02507500000006573 0  -0.5 0.01675000000004653 0  -0.5 0.008425000000027341 
[...]
<PointData  Scalars="f_26"> 
<DataArray  type="Float64"  Name="f_26"  format="ascii">1.0000000000000000e+00  3.1691473385269056e-06  1.1412185267773099e-05  9.9521364652290334e-01  9.2669137481630348e-06  3.2104216977094740e-06  1.0000000000000000e+00  1.0000000000000000e+00  8.6239928494071361e-02  6.8810356626700819e-02  6.9265523407999990e-02  6.9263570305358749e-02  3.1846285537850014e-06  3.1865235523418813e-06  3.1678730111806868e-06  3.1869106438866352e-06  3.1898299629332003e-06  3.1928757699842845e-06  3.1912645328479108e-06  3.1792796411098275e-06  3.1951350346488594e-06  3.1979956809511360e-06  3.1984933505431673e-06  3.1894413274044963e-06  3.2033457748182246e-06  3.2107438915413126e-06  3.2131388645981384e-06  3.2125877037980528e-06  3.2063222101171921e-06  3.2258056128862134e-06  3.2293284243882125e-06  3.2273815460076517e-06  3.2442670239973300e-06  3.2539141035744200e-06  3.2545004738682200e-06  3.2693178682556284e-06  3.2872678652941856e-06  3.2952498630181739e-06  3.3051296482555595e-06  3.3147002383555844e-06  3.3421847746438403e-06  3.3556705198934357e-06  3.3724153085006873e-06  3.3836993580697717e-06  3.3997784729654950e-06  3.4238367492113779e-06  3.4472851310078202e-06  3.4768427020066945e-06  3.5050494371015774e-06  3.5267438991241743e-06  3.5503605565251223e-06  3.5796703107129873e-06  3.6151157658983689e-06  3.6404336494596953e-06  3.6829267197399108e-06  3.7179436193045587e-06  3.7545822891338960e-06  3.7828778428271600e-06  3.8340567714701603e-06  3.8738594371410628e-06  3.9091335672982656e-06  3.9525297856480342e-06  4.0066065126959348e-06  4.0535681062642046e-06  4.0813220584084185e-06  4.1432543297065538e-06  4.1963634477376135e-06  4.2408974233635660e-06  4.2984620500210655e-06  4.3539686178109410e-06  4.3988246299617555e-06  4.4509033496686175e-06  4.5050495115456838e-06  4.5704624287353823e-06  4.6258812547363715e-06  4.6860898190092508e-06  4.7494492565396266e-06  4.7987547418338816e-06  4.8776637387769040e-06  4.9406136160114790e-06  5.0040189252630662e-06  5.0759297758296358e-06  5.1473017894801324e-06  5.2134022333112887e-06  5.2950453265930014e-06  5.3753902594756130e-06  5.4598620315066596e-06  5.5536013358675955e-06  5.6407342959369697e-06  5.7363157662019236e-06  5.8379411826143523e-06  5.9457775720950009e-06  6.0604870967675673e-06  6.1797741843294544e-06  6.3097968930053403e-06  6.4610347742231252e-06  6.6166213858282206e-06  6.7712260046179550e-06  6.9489974342802515e-06  7.1499114894542422e-06  7.3665643330617309e-06  7.6105619021446627e-06  7.8495867806289119e-06  8.1550949396618661e-06  8.4752380667315023e-06  8.8289262633651647e-06  9.2028800212793344e-06  9.6449287077152311e-06  1.0107196544389079e-05  1.0597119606521216e-05  1.1090077115637722e-05  1.1316701118804849e-05  1.1249065461248644e-05  1.1431300942974299e-05  1.1924681501091938e-05  1.2805337325932370e-05  1.4139019338702131e-05  1.6014542302589915e-05  1.8615118717390757e-05  2.2068135780166678e-05  2.6600335745353766e-05  3.2543173156386300e-05  4.0226946873929901e-05  5.0208108459582364e-05  6.3075537192058375e-05  7.9606381332884360e-05  1.0076301562172054e-04  1.2818184506406671e-04  1.6341688354919910e-04  2.0783090093302008e-04  2.6557465542723470e-04  3.3905948646340526e-04  4.3380224021075689e-04  5.5461293257189656e-04  7.0891903992565829e-04  9.0612435590698153e-04  1.1574744151656253e-03  1.4789282196080707e-03  1.8819427119865905e-03  2.4034487847161730e-03  3.0665458764647094e-03  3.9067129815673236e-03  4.9859165012155048e-03  6.3437313446356039e-03  8.0736844682462242e-03  1.0249888924341031e-02  1.3053032716772986e-02  1.6594492332960394e-02  2.1085767530724726e-02  2.6744946985180790e-02  3.3870643292048773e-02  4.2956362339909182e-02  5.4410124994771408e-02  8.6102547138152741e-02  1.0764639416645591e-01  1.3462036171191710e-01  1.6786856912318457e-01  2.0970011505726871e-01  2.6202954534820916e-01  3.2723487320629158e-01  4.0869157573808423e-01  5.1019442370665924e-01  6.3880388429488055e-01  7.9826757206249987e-01  9.8762535174345945e-01  7.9807084956265906e-01  6.4064666543357995e-01  5.1164368558323015e-01  4.0961250611054195e-01  3.2809607017756093e-01  2.6265879573981543e-01  2.1025376193701584e-01  1.6816549414414222e-01  1.3487597489124692e-01  1.0791348240072102e-01  6.8184454901552061e-02  5.3828455134758146e-02  4.2441454747566242e-02  3.3509619332369858e-02  2.6416083909798157e-02  2.0786872506328408e-02  1.6348641948903148e-02  1.2834859412361777e-02  1.0108467144721021e-02  7.9421456534342436e-03  6.2403303856227339e-03  4.8893445480642141e-03  3.8374609094697673e-03  3.0072357779068379e-03  2.3543083249940979e-03  1.8497124953372203e-03  1.4473165659861119e-03  1.1327245123877434e-03  8.8597444849628437e-04  6.9283354549340057e-04  5.4166468776545003e-04  4.2312221996119374e-04  3.3118075039150499e-04  2.5892760193612269e-04  2.0336765869340118e-04  1.5927281099108350e-04  1.2493157984733202e-04  9.8389069511059231e-05  7.7657512648431686e-05  6.1474837279701857e-05  4.8897666347056142e-05  3.9168703781807207e-05  3.1591176865619484e-05  2.5750395242604310e-05  2.1226973962458894e-05  1.7733278404756285e-05  1.5103755168058897e-05  1.3103582958627859e-05  1.1613935697753248e-05  1.0541995839050658e-05  9.8411676529551490e-06  9.4125011147606158e-06  9.2641023085716620e-06  9.2119026554318596e-06  9.1448682105397717e-06  9.0690807042068781e-06  8.9595546815706689e-06  8.8786377973911545e-06  8.7689490630271345e-06  8.6559143010593293e-06  8.5226066730849670e-06  8.4355904070438956e-06  8.3141491189535510e-06  8.2005840511894336e-06  8.0899231069318565e-06  7.9837829721109827e-06  7.8921839262611571e-06  7.7868279613434691e-06  7.6755194501998749e-06  7.5796033429755845e-06  7.4885829352590830e-06  7.3959253500721939e-06  7.3055863362144081e-06  7.2162524650693056e-06  7.1294086211351464e-06  7.0486786018502861e-06  6.9551967620794752e-06  6.8694337451372530e-06  6.7845723333940310e-06  6.6943712911581817e-06  6.6206607716690155e-06  6.5389832937733858e-06  6.4512211628877622e-06  6.3706087792974833e-06  6.2888666375994758e-06  6.1846084067579448e-06  6.1141900777385892e-06  6.0213769478643209e-06  5.9314426914694693e-06  5.8458427478923528e-06  5.7414990322493503e-06  5.6512674121858877e-06  5.5606451968406351e-06  5.4762782801724004e-06  5.3761193749055954e-06  5.2712301936375229e-06  5.1823746414050405e-06  5.0816140103492473e-06  4.9682105665446529e-06  4.8930902752593151e-06  4.7959296347788424e-06  4.6896602879333911e-06  4.5960954133362451e-06  4.5119857935565750e-06  4.4254156032736653e-06  4.3239427127986243e-06  4.2484101437943322e-06  4.1661198543899274e-06  4.0870546452662791e-06  4.0007635069627726e-06  3.9371026215070035e-06  3.8639474395392239e-06  3.7992478784140397e-06  3.7428246146319909e-06  3.6900883766236045e-06  3.6327595587521519e-06  3.5773266047063357e-06  3.5307565834422362e-06  3.4849904176889062e-06  3.4502186257921072e-06  3.4220322683993885e-06  3.3903166701138599e-06  3.3635736669002980e-06  3.3240906331126811e-06  3.3052490060210723e-06  3.2879918317273030e-06  3.2715910792764619e-06  3.2496171923379368e-06  3.2323434072233757e-06  3.2252248418167014e-06  3.2135943232461434e-06  3.1957038791700139e-06  3.1959046257852295e-06  3.1928241540443285e-06  3.1737677256388442e-06  3.1818467106444447e-06  3.1845819047276542e-06  3.1848019592798440e-06  3.1803158142937115e-06  3.1697740284791800e-06  3.1819274361264912e-06  3.1861968098566225e-06  3.1888408027021144e-06  3.1786624580880882e-06  3.1967880382980532e-06  3.2046463452815216e-06  3.2072425154094440e-06  3.2118203341799485e-06  3.1986752103765257e-06  3.2227480372968797e-06  3.2244525021318530e-06  3.3281852320740239e-06  3.6730159806682749e-06  4.2370022613684880e-06  5.1029138725233963e-06  6.3049528201765252e-06  7.9210024143011682e-06  1.0057272318814359e-05  1.2832275380963990e-05  1.6487074794683752e-05  2.1203644495513693e-05  2.7318305118547156e-05  3.5127173214177333e-05  4.5273474437915236e-05  5.8302074094948227e-05  7.5039680947731413e-05  9.6462410857919815e-05  1.2392024815690740e-04  1.5933250461206870e-04  2.0444407362915954e-04  2.6265387876770629e-04  3.3683131354281145e-04  4.3166625604805449e-04  5.5300478480872306e-04  7.0837858068271324e-04  9.0638031105130345e-04  1.1588892466384180e-03  1.4805414997553484e-03  1.8922242971853658e-03  2.4165968970921593e-03  3.0829799835509777e-03  3.9311285222568410e-03  5.0057229466431092e-03  6.3759660865708324e-03  8.1197696431077535e-03  1.0315880927601729e-02  1.3135014321674042e-02  1.6685942854897124e-02  2.1184114927746443e-02  2.6864965860284865e-02  3.4043832657850881e-02  4.3225827461996803e-02  5.4757835112579048e-02  8.6700134111245789e-02  1.0832481475598253e-01  1.3539670487721600e-01  1.6877170422715770e-01  2.1081775198043046e-01  2.6347962400187380e-01  3.2907188841832341e-01  4.1088841589652486e-01  5.1272291465476882e-01  6.4146256453220074e-01  8.0085078966272705e-01  1.0000000000000000e+00  1.0000000000000000e+00  1.0000000000000000e+00  1.0000000000000000e+00  9.9999999999999989e-01  1.0000000000000000e+00  1.0000000000000000e+00  1.0000000000000000e+00  1.0000000000000000e+00  1.0000000000000000e+00  1.0000000000000000e+00  1.0000000000000000e+00  1.0000000000000000e+00  1.0000000000000000e+00  1.0000000000000000e+00  1.0000000000000000e+00  1.0000000000000000e+00  1.0000000000000000e+00  1.0000000000000000e+00  1.0000000000000000e+00  1.0000000000000000e+00  1.0000000000000000e+00  1.0000000000000000e+00  1.0000000000000000e+00  1.0000000000000000e+00  1.0000000000000000e+00  1.0000000000000000e+00  1.0000000000000000e+00  1.0000000000000000e+00  1.0000000000000000e+00  1.0000000000000000e+00  9.9999999999999989e-01  1.0000000000000000e+00  1.0000000000000000e+00  1.0000000000000000e+00  1.0000000000000000e+00  1.0000000000000000e+00  1.0000000000000000e+00  1.0000000000000000e+00  1.0000000000000000e+00  1.0000000000000000e+00  1.0000000000000000e+00  1.0000000000000000e+00  1.0000000000000000e+00  1.0000000000000000e+00  1.0000000000000000e+00  1.0000000000000000e+00  1.0000000000000000e+00  1.0000000000000000e+00  1.0000000000000000e+00  1.0000000000000000e+00  1.0000000000000000e+00  1.0000000000000000e+00  1.0000000000000000e+00  1.0000000000000000e+00  1.0000000000000000e+00  1.0000000000000000e+00  1.0000000000000000e+00  1.0000000000000000e+00  1.0000000000000000e+00  1.0000000000000000e+00  1.0000000000000000e+00  1.0000000000000000e+00  9.9999999999999989e-01  1.0000000000000000e+00  1.0000000000000000e+00  1.0000000000000000e+00  1.0000000000000000e+00  1.0000000000000000e+00  1.0000000000000000e+00  1.0000000000000000e+00  1.0000000000000000e+00  1.0000000000000000e+00  1.0000000000000000e+00  1.0000000000000000e+00  1.0000000000000000e+00  1.0000000000000000e+00  1.0000000000000000e+00  1.0000000000000000e+00  1.0000000000000000e+00  1.0000000000000000e+00  1.0000000000000000e+00  1.0000000000000000e+00  1.0000000000000000e+00  1.0000000000000000e+00  1.0000000000000000e+00  1.0000000000000000e+00  1.0000000000000000e+00  1.0000000000000000e+00  1.0000000000000000e+00  1.0000000000000000e+00  1.0000000000000000e+00  9.9999999999999989e-01  1.0000000000000000e+00  1.0000000000000000e+00  1.0000000000000000e+00  1.0000000000000000e+00  1.0000000000000000e+00  1.0000000000000000e+00  9.9999999999999989e-01  9.9999999999999989e-01  1.0000000000000000e+00  1.0000000000000000e+00  9.9999999999999989e-01  1.0000000000000000e+00  1.0000000000000000e+00  1.0000000000000000e+00  1.0000000000000000e+00  1.0000000000000000e+00  1.0000000000000000e+00  8.0084211370407044e-01  6.4146390425249344e-01  5.1271195544803450e-01  4.1090606056836548e-01  3.2907730845353755e-01  2.6348063349275808e-01  2.1082093294498960e-01  1.6876833268928829e-01  1.3540471586369363e-01  1.0833074577598574e-01  8.6704598962698817e-02  5.4759761602131925e-02  4.3225363106784785e-02  3.4031200902633452e-02  2.6867433283183997e-02  2.1187026819689061e-02  1.6687807570917711e-02  1.3135691360290228e-02  1.0316949275449176e-02  8.1202000659294730e-03  6.3760029137869476e-03  5.0058845404507921e-03  3.9312005488533752e-03  3.0832341457382299e-03  2.4167447735681954e-03  1.8923200760648418e-03  1.4805749771350676e-03  1.1588756732462237e-03  9.0640625311907790e-04  7.0837397219771165e-04  5.5300576782550768e-04  4.3165760195193421e-04  3.3689786409706518e-04  2.6263763330288482e-04  2.0442766931685378e-04  1.5932179001559938e-04  1.2390306628608626e-04  9.6438085786697489e-05  7.5015368235702563e-05  5.8282915514643068e-05  4.5254024669510078e-05  3.5100875703842400e-05  2.7287442437199773e-05  2.1171388894322267e-05  1.6452426674772460e-05  1.2796981541675479e-05  1.0020335281705605e-05  7.8813836087839505e-06  6.2653984162407576e-06  5.0622647523400988e-06  4.1960305144516995e-06  3.6317359638285943e-06  3.2869170285967311e-06  6.9286468149597838e-02  6.9324828171140371e-02  6.9316150062829582e-02  6.9284487720282548e-02  6.9252645349287767e-02  6.9365771493797496e-02  6.9310536185409402e-02  6.9214919722437013e-02  6.9263231741459361e-02  6.9376312354352182e-02  6.9179086636348003e-02  6.9256418561392030e-02  6.9348364865111423e-02  6.9338857530178669e-02  6.9327102603934460e-02  6.9232065439305587e-02  6.9212737927221948e-02  6.9149634075574742e-02  6.9277939438649919e-02  6.9279722652431930e-02  6.9156796697464953e-02  6.9191188286997815e-02  6.9297650418575829e-02  6.9312737851766629e-02  6.9227565562302737e-02  6.9215527176869962e-02  6.9240954784143396e-02  6.9218790610044753e-02  6.9305073091114389e-02  6.9249681838545962e-02  6.9212870766221957e-02  6.9233149133147848e-02  6.9248615319486700e-02  6.9185970984061831e-02  6.9294524564362095e-02  6.9501970794288437e-02  6.9281893255578264e-02  6.9458424600205321e-02  6.9506433871331832e-02  6.9470253207019536e-02  6.9803890694912440e-02  6.9885207478263753e-02  6.9945997560328210e-02  7.0289292086729474e-02  7.0433526899641372e-02  7.0856901633356825e-02  7.1455416334532978e-02  7.2051458301947702e-02  7.2635928394685648e-02  7.3516933550766522e-02  7.4450705812690074e-02  7.5375059073723161e-02  7.6700821465909536e-02  7.7872487084492972e-02  7.9076231115456475e-02  8.0354313422886611e-02  8.1403123135906294e-02  8.2264269167413112e-02  8.3375140265449399e-02  8.4024744626539680e-02  8.4516326939749503e-02  8.5044769476736420e-02  8.5140943595748461e-02  8.5479085780887865e-02  8.5647526207202437e-02  8.5713991021027947e-02  8.5657698050432607e-02  8.5480823304929135e-02  8.5616767734420132e-02  8.5601023837171566e-02  8.5503721512013769e-02  8.5421060780499491e-02  8.5360158785225487e-02  8.5292925070697148e-02  8.5065452588780135e-02  8.5138184964495364e-02  8.5044131475807888e-02  8.4931941526622687e-02  8.5017571581071094e-02  8.4914618628947627e-02  8.4843864712884604e-02  8.4963363499426736e-02  8.5026105673104799e-02  8.4925578247870642e-02  8.4945097236671901e-02  8.5254081179862606e-02  8.5245102623275587e-02  8.5284793963255515e-02  8.5298555877052276e-02  8.5233916008688307e-02  8.5369176650537684e-02  8.5459330523898369e-02  8.5476216166129063e-02  8.5539923114876126e-02  8.5397215425643686e-02  8.5569125923654579e-02  8.5732697069821340e-02  8.5837905653101593e-02  8.5802725061280671e-02  8.5895214657083233e-02  8.5973061204149048e-02  8.6079132196634212e-02  8.6099733312586108e-02  8.6231500064946315e-02  8.6300127261986395e-02  8.6263281869738404e-02  8.6323829940366276e-02  8.6295691554993448e-02  8.6154251090177311e-02  8.6375028671499904e-02  8.6438025245945987e-02  6.9288634803201979e-02  6.9324542268339881e-02  6.9317427783260749e-02  6.9285575536470495e-02  6.9252987675848102e-02  6.9368688033603895e-02  6.9307756922487973e-02  6.9216322970368130e-02  6.9260156938912243e-02  6.9370430626936860e-02  6.9189136270609519e-02  6.9249231672856723e-02  6.9342008080788983e-02  6.9333404892397379e-02  6.9323665460747294e-02  6.9234719759316152e-02  6.9213310586054136e-02  6.9132697873812932e-02  6.9268529382422409e-02  6.9296084020623386e-02  6.9170680305810389e-02  6.9214979872975979e-02  6.9299646808375123e-02  6.9314327776011653e-02  6.9224637074046302e-02  6.9213665854549730e-02  6.9241346199749698e-02  6.9213744129526869e-02  6.9286307891986351e-02  6.9223221812579033e-02  6.9176348331424803e-02  6.9181071011708742e-02  6.9173817882718938e-02  6.9092408704805805e-02  6.9173270220458882e-02  6.9355967026305240e-02  6.9088847181529620e-02  6.9215712636311433e-02  6.9191383562420009e-02  6.9065213337122580e-02  6.9293103803873629e-02  6.9226931569672148e-02  6.9106557700303203e-02  6.9215541878452067e-02  6.9055028257184015e-02  6.9093221423119883e-02  6.9211224557274104e-02  6.9225816840242843e-02  6.9096963300058628e-02  6.9139431015485336e-02  6.9117217026578082e-02  6.8953244107180581e-02  6.9099980943383738e-02  6.9063229132816914e-02  6.9019447592841621e-02  6.9060650902694046e-02  6.8999946721447117e-02  6.8862726719732953e-02  6.9039926893310288e-02  6.8982405321160539e-02  6.8900783427382303e-02  6.8982031900171242e-02  6.8803386926019061e-02  6.8895579854283726e-02  6.8914914396054558e-02  6.8899276253826150e-02  6.8825623914082132e-02  6.8691926401460587e-02  6.8832945885657415e-02  6.8877861177417191e-02  6.8869715018703481e-02  6.8856147734470852e-02  6.8892706168512285e-02  6.8918545110546889e-02  6.8812403153031276e-02  6.8942578060855950e-02  6.8928892603903003e-02  6.8883770087244486e-02  6.8980679956158419e-02  6.8903286454328902e-02  6.8830596521155279e-02  6.8896536175781745e-02  6.8903779065939308e-02  6.8807402159227815e-02  6.8748956978544010e-02  6.8938911999760405e-02  6.8887389728011519e-02  6.8885461296196174e-02  6.8873054771505793e-02  6.8799552546566667e-02  6.8882990048509729e-02  6.8926597743638837e-02  6.8900960349569496e-02  6.8903052538845155e-02  6.8733413495101439e-02  6.8821277791801042e-02  6.8898626363052023e-02  6.8929807327363729e-02  6.8838150754896785e-02  6.8850851121320486e-02  6.8844669197776487e-02  6.8868323691447658e-02  6.8834324929730684e-02  6.8895113586164847e-02  6.8916494201484171e-02  6.8868694503629396e-02  6.8893845881996096e-02  6.8860996964138194e-02  6.8728565321686572e-02  6.8915572025141286e-02  6.8977114161154679e-02  9.9324206752642663e-01  9.9800126566178993e-01  9.9375237918371717e-01  9.9537304012547245e-01  9.9635802353935399e-01  9.9532262590796750e-01  9.9562369265043815e-01  9.9619507556073605e-01  9.9525222797720858e-01  9.9563939833979420e-01  9.9430100250907427e-01  9.9730182992291971e-01  9.9486347866958036e-01  9.9620141756161673e-01  9.9582236597869445e-01  9.9647808954867045e-01  9.9592937365403889e-01  9.9586710528210243e-01  9.9650755579277928e-01  9.9621100670072638e-01  9.9631689171173909e-01  9.9656930311354819e-01  9.9631637623334346e-01  9.9663484108662703e-01  9.9668334500480416e-01  9.9497377402210452e-01  9.9850567627441522e-01  9.9549026636063620e-01  9.9661810268560491e-01  9.9577637822971665e-01  9.9549872049922838e-01  9.9556748850428656e-01  9.9585215389231529e-01  9.9663103812529952e-01  9.9541579439509931e-01  9.9849294138125622e-01  9.9496423313447513e-01  9.9508984655752675e-01  9.9828083714018967e-01  9.9457934799894820e-01  9.9544802193332649e-01  9.9532460378909182e-01  9.9644874424075591e-01  9.9589392340637517e-01  9.9560774714010480e-01  9.9607723198928133e-01  9.9509935981769337e-01  9.9557815480861223e-01  9.9592717085390603e-01  9.9540640451621420e-01  9.9628344758672704e-01  9.9542616566607733e-01  9.9592359705669942e-01  9.9453508052557227e-01  9.9676186355048957e-01  3.4529060504064199e-04  3.6423408254548565e-04  4.4562819565824318e-04  5.1027539286329195e-04  3.0260476126296319e-03  2.6282364268408668e-03  2.7666259060683258e-03  3.3513192338468314e-03  5.8690178638630610e-05  5.2486690834846033e-05  4.6082108127083794e-05  5.1523881936507746e-05  4.4787781846302123e-03  5.5330978734845354e-05  5.1254079639770668e-03  4.9601125547009597e-03  6.2075952779879293e-03  3.1163086979331858e-05  2.6283101843577292e-05  2.5049463457529234e-05  7.4338676823823245e