<?xml version="1.0"?>
<VTKFile type="UnstructuredGrid"  version="0.1"  >
<UnstructuredGrid>
<Piece  NumberOfPoints="15540" NumberOfCells="30546">
<Points>
<DataArray  type="Float64"  NumberOfComponents="3"  format="ascii">0 0 0  -0.5 -0.5 0  0.5 -0.5 0  0.5 0 0  0.5 0.5 0  -0.5 0.5 0  -0.5 0.0001 0  -0.5 -0.0001 0  0.5 0.1 0  0.5 -0.1 0  -0.5 -0.1 0  -0.5 0.1 0  -0.4900000000000277 -0.5 0  -0.4800000000000555 -0.5 0  -0.4700000000000832 -0.5 0  -0.4600000000001109 -0.5 0  -0.4500000000001387 -0.5 0  -0.4400000000001664 -0.5 0  -0.4300000000001942 -0.5 0  -0.4200000000002219 -0.5 0  -0.4100000000002497 -0.5 0  -0.4000000000002774 -0.5 0  -0.3900000000003052 -0.5 0  -0.3800000000003328 -0.5 0  -0.3700000000003606 -0.5 0  -0.3600000000003883 -0.5 0  -0.3500000000004161 -0.5 0  -0.3400000000004438 -0.5 0  -0.3300000000004716 -0.5 0  -0.3200000000004993 -0.5 0  -0.3100000000005271 -0.5 0  -0.3000000000005548 -0.5 0  -0.2900000000005825 -0.5 0  -0.2800000000006103 -0.5 0  -0.2700000000006381 -0.5 0  -0.2600000000006658 -0.5 0  -0.2500000000006935 -0.5 0  -0.2400000000007212 -0.5 0  -0.230000000000749 -0.5 0  -0.2200000000007767 -0.5 0  -0.2100000000008044 -0.5 0  -0.2000000000008322 -0.5 0  -0.19000000000086 -0.5 0  -0.1800000000008877 -0.5 0  -0.1700000000009154 -0.5 0  -0.1600000000009431 -0.5 0  -0.1500000000009709 -0.5 0  -0.1400000000009986 -0.5 0  -0.1300000000010264 -0.5 0  -0.1200000000010541 -0.5 0  -0.1100000000010818 -0.5 0  -0.1000000000011096 -0.5 0  -0.09000000000113734 -0.5 0  -0.08000000000116503 -0.5 0  -0.07000000000119283 -0.5 0  -0.06000000000122058 -0.5 0  -0.05000000000124827 -0.5 0  -0.04000000000127607 -0.5 0  -0.03000000000130376 -0.5 0  -0.02000000000133151 -0.5 0  -0.01000000000135925 -0.5 0  -1.376121439022882e-12 -0.5 0  0.009999999998640763 -0.5 0  0.01999999999866864 -0.5 0  0.02999999999869629 -0.5 0  0.03999999999872406 -0.5 0  0.04999999999875182 -0.5 0  0.05999999999877947 -0.5 0  0.06999999999880724 -0.5 0  0.079999999998835 -0.5 0  0.08999999999886266 -0.5 0  0.09999999999889042 -0.5 0  0.1099999999989182 -0.5 0  0.1199999999989459 -0.5 0  0.1299999999989737 -0.5 0  0.1399999999990014 -0.5 0  0.1499999999990291 -0.5 0  0.1599999999990568 -0.5 0  0.1699999999990847 -0.5 0  0.1799999999991124 -0.5 0  0.1899999999991401 -0.5 0  0.1999999999991678 -0.5 0  0.2099999999991955 -0.5 0  0.2199999999992234 -0.5 0  0.2299999999992511 -0.5 0  0.2399999999992788 -0.5 0  0.2499999999993066 -0.5 0  0.2599999999993342 -0.5 0  0.269999999999362 -0.5 0  0.2799999999993897 -0.5 0  0.2899999999994175 -0.5 0  0.2999999999994452 -0.5 0  0.3099999999994729 -0.5 0  0.3199999999995007 -0.5 0  0.3299999999995284 -0.5 0  0.3399999999995562 -0.5 0  0.3499999999995839 -0.5 0  0.3599999999996116 -0.5 0  0.3699999999996393 -0.5 0  0.379999999999667 -0.5 0  0.3899999999996949 -0.5 0  0.3999999999997226 -0.5 0  0.4099999999997503 -0.5 0  0.419999999999778 -0.5 0  0.4299999999998058 -0.5 0  0.4399999999998336 -0.5 0  0.4499999999998613 -0.5 0  0.4599999999998891 -0.5 0  0.4699999999999167 -0.5 0  0.4799999999999445 -0.5 0  0.4899999999999722 -0.5 0  0.5 -0.4902110204681464 0  0.5 -0.4804459958734807 0  0.5 -0.4707048677450883 0  0.5 -0.4609875815766065 0  0.5 -0.4512940759251849 0  0.5 -0.4416242912883993 0  0.5 -0.4319781678689807 0  0.5 -0.4223556545383647 0  0.5 -0.4127566896324213 0  0.5 -0.4031812128200121 0  0.5 -0.3936291733057916 0  0.5 -0.3841005081172659 0  0.5 -0.3745951585781932 0  0.5 -0.3651130778999337 0  0.5 -0.3556541993788045 0  0.5 -0.3462184677228392 0  0.5 -0.3368058273705318 0  0.5 -0.3274162224888609 0  0.5 -0.3180495969712945 0  0.5 -0.3087058944357755 0  0.5 -0.299385058222682 0  0.5 -0.2900870313927414 0  0.5 -0.2808117567250807 0  0.5 -0.2715591844628491 0  0.5 -0.2623292564012653 0  0.5 -0.253121909553727 0  0.5 -0.2439371050851549 0  0.5 -0.2347747685524501 0  0.5 -0.2256348634421331 0  0.5 -0.2165173209784076 0  0.5 -0.207422087829958 0  0.5 -0.1983491207029381 0  0.5 -0.1892983550950482 0  0.5 -0.1802697378305253 0  0.5 -0.1712632154965152 0  0.5 -0.1622787344187354 0  0.5 -0.1533162406595534 0  0.5 -0.1443756800160514 0  0.5 -0.1354569980180493 0  0.5 -0.1265601399261414 0  0.5 -0.1176850622761093 0  0.5 -0.1088317009011999 0  0.5 -0.09166666666668973 0  0.5 -0.08333333333337943 0  0.5 -0.07500000000006915 0  0.5 -0.06666666666675886 0  0.5 -0.05833333333344858 0  0.5 -0.05000000000013693 0  0.5 -0.04166666666678191 0  0.5 -0.03333333333342643 0  0.5 -0.02500000000006916 0  0.5 -0.01666666666671188 0  0.5 -0.00833333333335548 0  0.5 0.008333333333318314 0  0.5 0.01666666666663358 0  0.5 0.02499999999994162 0  0.5 0.03333333333325101 0  0.5 0.04166666666655769 0  0.5 0.04999999999986843 0  0.5 0.05833333333322258 0  0.5 0.06666666666657715 0  0.5 0.07499999999993352 0  0.5 0.08333333333328992 0  0.5 0.09166666666664541 0  0.5 0.1088317009011616 0  0.5 0.1176850622760307 0  0.5 0.1265601399260203 0  0.5 0.1354569980178909 0  0.5 0.1443756800158549 0  0.5 0.153316240659315 0  0.5 0.1622787344184454 0  0.5 0.1712632154961752 0  0.5 0.1802697378301332 0  0.5 0.1892983550946039 0  0.5 0.1983491207024433 0  0.5 0.2074220878294123 0  0.5 0.216517320977811 0  0.5 0.2256348634414833 0  0.5 0.2347747685517479 0  0.5 0.2439371050844009 0  0.5 0.2531219095529224 0  0.5 0.2623292564004089 0  0.5 0.2715591844619371 0  0.5 0.2808117567241139 0  0.5 0.290087031391723 0  0.5 0.2993850582216101 0  0.5 0.3087058944347426 0  0.5 0.3180495969703129 0  0.5 0.3274162224879299 0  0.5 0.3368058273696494 0  0.5 0.3462184677220051 0  0.5 0.3556541993780186 0  0.5 0.3651130778991989 0  0.5 0.3745951585775107 0  0.5 0.3841005081166359 0  0.5 0.3936291733052134 0  0.5 0.4031812128194852 0  0.5 0.412756689631945 0  0.5 0.4223556545379392 0  0.5 0.431978167868607 0  0.5 0.4416242912880781 0  0.5 0.4512940759249164 0  0.5 0.4609875815763912 0  0.5 0.4707048677449264 0  0.5 0.4804459958733726 0  0.5 0.4902110204680924 0  0.4900000000000277 0.5 0  0.4800000000000555 0.5 0  0.4700000000000832 0.5 0  0.4600000000001109 0.5 0  0.4500000000001387 0.5 0  0.4400000000001664 0.5 0  0.4300000000001942 0.5 0  0.4200000000002219 0.5 0  0.4100000000002497 0.5 0  0.4000000000002774 0.5 0  0.3900000000003052 0.5 0  0.3800000000003328 0.5 0  0.3700000000003606 0.5 0  0.3600000000003883 0.5 0  0.3500000000004161 0.5 0  0.3400000000004438 0.5 0  0.3300000000004716 0.5 0  0.3200000000004993 0.5 0  0.3100000000005271 0.5 0  0.3000000000005548 0.5 0  0.2900000000005825 0.5 0  0.2800000000006103 0.5 0  0.2700000000006381 0.5 0  0.2600000000006658 0.5 0  0.2500000000006935 0.5 0  0.2400000000007212 0.5 0  0.230000000000749 0.5 0  0.2200000000007767 0.5 0  0.2100000000008044 0.5 0  0.2000000000008322 0.5 0  0.19000000000086 0.5 0  0.1800000000008877 0.5 0  0.1700000000009154 0.5 0  0.1600000000009431 0.5 0  0.1500000000009709 0.5 0  0.1400000000009986 0.5 0  0.1300000000010264 0.5 0  0.1200000000010541 0.5 0  0.1100000000010818 0.5 0  0.1000000000011096 0.5 0  0.09000000000113734 0.5 0  0.08000000000116503 0.5 0  0.07000000000119283 0.5 0  0.06000000000122058 0.5 0  0.05000000000124827 0.5 0  0.04000000000127607 0.5 0  0.03000000000130376 0.5 0  0.02000000000133151 0.5 0  0.01000000000135925 0.5 0  1.376121439022882e-12 0.5 0  -0.009999999998640763 0.5 0  -0.01999999999866864 0.5 0  -0.02999999999869629 0.5 0  -0.03999999999872406 0.5 0  -0.04999999999875182 0.5 0  -0.05999999999877947 0.5 0  -0.06999999999880724 0.5 0  -0.079999999998835 0.5 0  -0.08999999999886266 0.5 0  -0.09999999999889042 0.5 0  -0.1099999999989182 0.5 0  -0.1199999999989459 0.5 0  -0.1299999999989737 0.5 0  -0.1399999999990014 0.5 0  -0.1499999999990291 0.5 0  -0.1599999999990568 0.5 0  -0.1699999999990847 0.5 0  -0.1799999999991124 0.5 0  -0.1899999999991401 0.5 0  -0.1999999999991678 0.5 0  -0.2099999999991955 0.5 0  -0.2199999999992234 0.5 0  -0.2299999999992511 0.5 0  -0.2399999999992788 0.5 0  -0.2499999999993066 0.5 0  -0.2599999999993342 0.5 0  -0.269999999999362 0.5 0  -0.2799999999993897 0.5 0  -0.2899999999994175 0.5 0  -0.2999999999994452 0.5 0  -0.3099999999994729 0.5 0  -0.3199999999995007 0.5 0  -0.3299999999995284 0.5 0  -0.3399999999995562 0.5 0  -0.3499999999995839 0.5 0  -0.3599999999996116 0.5 0  -0.3699999999996393 0.5 0  -0.379999999999667 0.5 0  -0.3899999999996949 0.5 0  -0.3999999999997226 0.5 0  -0.4099999999997503 0.5 0  -0.419999999999778 0.5 0  -0.4299999999998058 0.5 0  -0.4399999999998336 0.5 0  -0.4499999999998613 0.5 0  -0.4599999999998891 0.5 0  -0.4699999999999167 0.5 0  -0.4799999999999445 0.5 0  -0.4899999999999722 0.5 0  -0.5 0.4902110204681464 0  -0.5 0.4804459958734807 0  -0.5 0.4707048677450883 0  -0.5 0.4609875815766065 0  -0.5 0.4512940759251849 0  -0.5 0.4416242912883993 0  -0.5 0.4319781678689807 0  -0.5 0.4223556545383647 0  -0.5 0.4127566896324213 0  -0.5 0.4031812128200121 0  -0.5 0.3936291733057916 0  -0.5 0.3841005081172659 0  -0.5 0.3745951585781932 0  -0.5 0.3651130778999337 0  -0.5 0.3556541993788045 0  -0.5 0.3462184677228392 0  -0.5 0.3368058273705318 0  -0.5 0.3274162224888609 0  -0.5 0.3180495969712945 0  -0.5 0.3087058944357755 0  -0.5 0.299385058222682 0  -0.5 0.2900870313927414 0  -0.5 0.2808117567250807 0  -0.5 0.2715591844628491 0  -0.5 0.2623292564012653 0  -0.5 0.253121909553727 0  -0.5 0.2439371050851549 0  -0.5 0.2347747685524501 0  -0.5 0.2256348634421331 0  -0.5 0.2165173209784076 0  -0.5 0.207422087829958 0  -0.5 0.1983491207029381 0  -0.5 0.1892983550950482 0  -0.5 0.1802697378305253 0  -0.5 0.1712632154965152 0  -0.5 0.1622787344187354 0  -0.5 0.1533162406595534 0  -0.5 0.1443756800160514 0  -0.5 0.1354569980180493 0  -0.5 0.1265601399261414 0  -0.5 0.1176850622761093 0  -0.5 0.1088317009011999 0  -0.5 0.09167500000001694 0  -0.5 0.08335000000003931 0  -0.5 0.07502500000006167 0  -0.5 0.06670000000008947 0  -0.5 0.05837500000011001 0  -0.5 0.0500500000001328 0  -0.5 0.0417250000001127 0  -0.5 0.03340000000008944 0  -0.5 0.02507500000006573 0  -0.5 0.01675000000004653 0  -0.5 0.008425000000027341 
[...]
<PointData  Scalars="f_26"> 
<DataArray  type="Float64"  Name="f_26"  format="ascii">9.9999999999999989e-01  3.1699511227162122e-06  9.3000196888632928e-06  9.9424895033271332e-01  7.8274338627872934e-06  3.1967658655661418e-06  1.0000000000000000e+00  1.0000000000000000e+00  8.6087172706758960e-02  6.8734509405599567e-02  6.9265522601800231e-02  6.9263569210789022e-02  3.1851724850923868e-06  3.1867381389432546e-06  3.1678129121537045e-06  3.1866189436509240e-06  3.1893909084585497e-06  3.1923431139450574e-06  3.1906743692530052e-06  3.1786455085399906e-06  3.1944510962315404e-06  3.1972412450959812e-06  3.1976321475271361e-06  3.1884193916349994e-06  3.2021031563293516e-06  3.2092077415180980e-06  3.2112218865402760e-06  3.2101937530117736e-06  3.2033368280748054e-06  3.2221185945501406e-06  3.2248070672111788e-06  3.2218836149285913e-06  3.2376480912750619e-06  3.2460094131150161e-06  3.2451182911920194e-06  3.2582954244395331e-06  3.2743991043948004e-06  3.2803118161148067e-06  3.2878981020483469e-06  3.2949267717610657e-06  3.3196199608573929e-06  3.3300273750627526e-06  3.3434166276542600e-06  3.3510305912521887e-06  3.3631305578558656e-06  3.3828719387904557e-06  3.4016549507430434e-06  3.4261991279494839e-06  3.4490175964375461e-06  3.4649229224000393e-06  3.4823614612569819e-06  3.5050998450126452e-06  3.5335613644578111e-06  3.5514553183593361e-06  3.5861355987013128e-06  3.6128860098689861e-06  3.6408587472740839e-06  3.6600449597992660e-06  3.7017262315064249e-06  3.7316233966737158e-06  3.7566046989272627e-06  3.7893751740128627e-06  3.8325318567845233e-06  3.8683313513887354e-06  3.8846955461458353e-06  3.9349562090863977e-06  3.9761881546274169e-06  4.0086013582211960e-06  4.0537408432115667e-06  4.0965445039209711e-06  4.1284409997643781e-06  4.1672385204562404e-06  4.2077449924355885e-06  4.2591044232689271e-06  4.3001764437766192e-06  4.3456027632070830e-06  4.3937258078874416e-06  4.4274255622248715e-06  4.4900099408829195e-06  4.5361874393407763e-06  4.5822040212614909e-06  4.6359926920928047e-06  4.6884984809322467e-06  4.7349373778888515e-06  4.7959443522315865e-06  4.8547170366979067e-06  4.9165130209254543e-06  4.9863210788274890e-06  5.0482757507910296e-06  5.1171921501739878e-06  5.1904707877226730e-06  5.2682031036059688e-06  5.3507992288270724e-06  5.4359144794566723e-06  5.5293014285525029e-06  5.6411069469845035e-06  5.7542535504027188e-06  5.8632615721322458e-06  5.9916621948396845e-06  6.1388963953084008e-06  6.2972370550387034e-06  6.4775821174116528e-06  6.6474444486286361e-06  6.8763916002881665e-06  7.1132200756138626e-06  7.3752070294619532e-06  7.6482697583566965e-06  7.9801772478788801e-06  8.3236787587477241e-06  8.6902356916678815e-06  9.0611382614015886e-06  9.2561554941272761e-06  9.2877097764158787e-06  9.5588998443260382e-06  1.0138058579763348e-05  1.1090075243573103e-05  1.2483852053139979e-05  1.4408912794406095e-05  1.7050081568881987e-05  2.0535906100552803e-05  2.5093431989656986e-05  3.1054495280317041e-05  3.8750036157256456e-05  4.8736448337042529e-05  6.1602486117050894e-05  7.8124761877421150e-05  9.9264882396342088e-05  1.2665844493997712e-04  1.6185702251428591e-04  2.0622240882238501e-04  2.6390156618435134e-04  3.3730220167539279e-04  4.3193652482016493e-04  5.5260823821999517e-04  7.0673724860686950e-04  9.0371711623720742e-04  1.1547812444483198e-03  1.4758710164530905e-03  1.8784302782341637e-03  2.3993517777066054e-03  3.0617071887438004e-03  3.9009386794215516e-03  4.9789446041131943e-03  6.3352583415849963e-03  8.0633052199105756e-03  1.0237117725428365e-02  1.3037192535186794e-02  1.6574785794925037e-02  2.1061173130495752e-02  2.6714213834371649e-02  3.3832206916244036e-02  4.2908145642122149e-02  5.4349632886502512e-02  8.6008368345855526e-02  1.0752953715402225e-01  1.3447535301222593e-01  1.6768920339021234e-01  2.0947813801148460e-01  2.6175519647343487e-01  3.2689698196613970e-01  4.0827787856501657e-01  5.0969416352648622e-01  6.3820836136080572e-01  7.9761300638240240e-01  9.8542064746345459e-01  7.9642843291677945e-01  6.3930080018352187e-01  5.1061008714375522e-01  4.0881232554285940e-01  3.2747225325239870e-01  2.6217012685454161e-01  2.0986863834942629e-01  1.6786102083986174e-01  1.3463414411999980e-01  1.0772138825533750e-01  6.8064123806487575e-02  5.3733613914132089e-02  4.2366632966305752e-02  3.3450429961199818e-02  2.6369225074576390e-02  2.0749752889996316e-02  1.6319167078319059e-02  1.2811416724690902e-02  1.0089697162058197e-02  7.9270799194029341e-03  6.2281710787002219e-03  4.8794921073283069e-03  3.8294036458444325e-03  3.0005966516085947e-03  2.3487836494030692e-03  1.8450525354793907e-03  1.4433465299131937e-03  1.1292951609024738e-03  8.8297070735758208e-04  6.9016438562593911e-04  5.3925870486613641e-04  4.2092301317552347e-04  3.2914412425695170e-04  2.5701853016330418e-04  2.0155861233601974e-04  1.5754351352254359e-04  1.2326428829547784e-04  9.6771417269621171e-05  7.6078981464399863e-05  5.9927069285727150e-05  4.7374375407978965e-05  3.7664858497303070e-05  3.0102944749274909e-05  2.4274203293142443e-05  1.9760220835873656e-05  1.6274126776571382e-05  1.3650716900136916e-05  1.1655093066635410e-05  1.0169029535403090e-05  9.0991599945253565e-06  8.4009431214207013e-06  7.9729216683392449e-06  7.8301138025138310e-06  7.7914959195473323e-06  7.7444563096555755e-06  7.6936530173939151e-06  7.6129111605388081e-06  7.5634634908566002e-06  7.4871532287427609e-06  7.4087260855504922e-06  7.3109514905266571e-06  7.2597557355185294e-06  7.1742222171192778e-06  7.0963362507204940e-06  7.0210378108921289e-06  6.9496108080751053e-06  6.8920565717358791e-06  6.8200146047149974e-06  6.7411653087932428e-06  6.6768236115098092e-06  6.6164130980887951e-06  6.5535374244013168e-06  6.4920323051350175e-06  6.4306812170566716e-06  6.3709184541870940e-06  6.3165413407967717e-06  6.2486048383115046e-06  6.1876530818223492e-06  6.1270275363713662e-06  6.0604754470681330e-06  6.0099802289046938e-06  5.9510480633954609e-06  5.8857417784839277e-06  5.8273558898491487e-06  5.7677753506671543e-06  5.6857593150464028e-06  5.6376857301917707e-06  5.5673487517713154e-06  5.4997640589438049e-06  5.4362100550266463e-06  5.3535721094785832e-06  5.2845300921247767e-06  5.2144883257791370e-06  5.1500943374747757e-06  5.0693198335791640e-06  4.9831805720738454e-06  4.9124399077939602e-06  4.8291345705956538e-06  4.7326311711076349e-06  4.6736597056046804e-06  4.5920334453295554e-06  4.5006599621004719e-06  4.4213177412826187e-06  4.3508034962864580e-06  4.2771418406108508e-06  4.1879899125292400e-06  4.1240910785814001e-06  4.0527864550119924e-06  3.9841094943294971e-06  3.9075658734800236e-06  3.8530207771797053e-06  3.7883887653725884e-06  3.7315966112047834e-06  3.6825126133990921e-06  3.6365506485690805e-06  3.5854521422395952e-06  3.5357300102982878e-06  3.4943733168931710e-06  3.4533476867898121e-06  3.4228477967550069e-06  3.3985197643332662e-06  3.3702523178066963e-06  3.3465820441080000e-06  3.3098331013439087e-06  3.2933709662162069e-06  3.2781919972812288e-06  3.2635910749615281e-06  3.2431560857430067e-06  3.2271693771970059e-06  3.2211158676583187e-06  3.2103413157707818e-06  3.1931162048140600e-06  3.1937879674467560e-06  3.1910196623201814e-06  3.1721225282213319e-06  3.1802113668865771e-06  3.1828277040702181e-06  3.1828101585944736e-06  3.1779703752859301e-06  3.1669576956578840e-06  3.1785137370223895e-06  3.1820662453372299e-06  3.1838722351852528e-06  3.1727465313029079e-06  3.1898175110806126e-06  3.1965455254487488e-06  3.1979552703085202e-06  3.2013425251500656e-06  3.1870495132362719e-06  3.2101328956692102e-06  3.2111148624801622e-06  3.3145624837479042e-06  3.6594599994203517e-06  4.2234800800544524e-06  5.0895362096760675e-06  6.2917154397605399e-06  7.9079389747677484e-06  1.0044416166734448e-05  1.2819629706638914e-05  1.6474699025654372e-05  2.1191552891066573e-05  2.7306517648762656e-05  3.5115713357111220e-05  4.5262364955386219e-05  5.8291333788266281e-05  7.5029322933490946e-05  9.6452459181098951e-05  1.2391071117740592e-04  1.5932338735647966e-04  2.0443539214157156e-04  2.6264563616747822e-04  3.3682351419585336e-04  4.3165890152973760e-04  5.5299787341209759e-04  7.0837210508379971e-04  9.0637426692675798e-04  1.1588836246949504e-03  1.4805362818413900e-03  1.8922194758541004e-03  2.4165924561925485e-03  3.0829759059149233e-03  3.9311247911335981e-03  5.0057195413186024e-03  6.3759629840945287e-03  8.1197668256977554e-03  1.0315878376033195e-02  1.3135012009615836e-02  1.6685940766966983e-02  2.1184113045288049e-02  2.6864964164791918e-02  3.4043831136989736e-02  4.3225826091681845e-02  5.4757833884280779e-02  8.6700133127632098e-02  1.0832481387969461e-01  1.3539670410270011e-01  1.6877170354774249e-01  2.1081775139422154e-01  2.6347962350386445e-01  3.2907188800558712e-01  4.1088841556844580e-01  5.1272291441060613e-01  6.4146256436923055e-01  8.0085078958127554e-01  1.0000000000000000e+00  1.0000000000000000e+00  1.0000000000000000e+00  1.0000000000000000e+00  1.0000000000000000e+00  1.0000000000000000e+00  1.0000000000000000e+00  1.0000000000000000e+00  1.0000000000000000e+00  9.9999999999999989e-01  1.0000000000000000e+00  1.0000000000000000e+00  1.0000000000000000e+00  9.9999999999999989e-01  1.0000000000000000e+00  1.0000000000000000e+00  1.0000000000000000e+00  1.0000000000000000e+00  1.0000000000000000e+00  1.0000000000000000e+00  1.0000000000000000e+00  1.0000000000000000e+00  1.0000000000000000e+00  1.0000000000000000e+00  1.0000000000000000e+00  1.0000000000000000e+00  1.0000000000000000e+00  1.0000000000000000e+00  1.0000000000000000e+00  1.0000000000000000e+00  1.0000000000000000e+00  1.0000000000000000e+00  1.0000000000000000e+00  1.0000000000000000e+00  9.9999999999999989e-01  1.0000000000000000e+00  1.0000000000000000e+00  1.0000000000000000e+00  1.0000000000000000e+00  1.0000000000000000e+00  1.0000000000000000e+00  1.0000000000000000e+00  1.0000000000000000e+00  1.0000000000000000e+00  1.0000000000000000e+00  1.0000000000000000e+00  1.0000000000000000e+00  1.0000000000000000e+00  1.0000000000000000e+00  1.0000000000000000e+00  1.0000000000000000e+00  1.0000000000000000e+00  9.9999999999999989e-01  1.0000000000000000e+00  1.0000000000000000e+00  1.0000000000000000e+00  1.0000000000000000e+00  1.0000000000000000e+00  1.0000000000000000e+00  1.0000000000000000e+00  1.0000000000000000e+00  1.0000000000000000e+00  1.0000000000000000e+00  1.0000000000000000e+00  1.0000000000000000e+00  1.0000000000000000e+00  1.0000000000000000e+00  1.0000000000000000e+00  1.0000000000000000e+00  1.0000000000000000e+00  1.0000000000000000e+00  1.0000000000000000e+00  9.9999999999999989e-01  1.0000000000000000e+00  1.0000000000000000e+00  1.0000000000000000e+00  1.0000000000000000e+00  1.0000000000000000e+00  1.0000000000000000e+00  1.0000000000000000e+00  1.0000000000000000e+00  1.0000000000000000e+00  1.0000000000000000e+00  1.0000000000000000e+00  1.0000000000000000e+00  1.0000000000000000e+00  1.0000000000000000e+00  9.9999999999999989e-01  1.0000000000000000e+00  1.0000000000000000e+00  1.0000000000000000e+00  1.0000000000000000e+00  1.0000000000000000e+00  1.0000000000000000e+00  1.0000000000000000e+00  1.0000000000000000e+00  1.0000000000000000e+00  1.0000000000000000e+00  9.9999999999999989e-01  1.0000000000000000e+00  1.0000000000000000e+00  1.0000000000000000e+00  1.0000000000000000e+00  1.0000000000000000e+00  1.0000000000000000e+00  1.0000000000000000e+00  1.0000000000000000e+00  1.0000000000000000e+00  1.0000000000000000e+00  1.0000000000000000e+00  8.0084211365215729e-01  6.4146390414821941e-01  5.1271195529079916e-01  4.1090606035539723e-01  3.2907730818276698e-01  2.6348063316179249e-01  2.1082093254970719e-01  1.6876833222392998e-01  1.3540471532380682e-01  1.0833074515422898e-01  8.6704598251809983e-02  5.4759760680064121e-02  4.3225362058744374e-02  3.4031199717588473e-02  2.6867431942685219e-02  2.1187025310801154e-02  1.6687805878698121e-02  1.3135689470747872e-02  1.0316947177212953e-02  8.1201977440722318e-03  6.3760003567864092e-03  5.0058817395415185e-03  3.9311974993440427e-03  3.0832308404575058e-03  2.4167412125314491e-03  1.8923162619508579e-03  1.4805709133297526e-03  1.1588713797126421e-03  9.0640173504689817e-04  7.0836924919760486e-04  5.5300086436995755e-04  4.3165254038811423e-04  3.3689267484916731e-04  2.6263234926101101e-04  2.0442232846580930e-04  1.5931643005613285e-04  1.2389773313463680e-04  9.6432817471173287e-05  7.5010207113586347e-05  5.8277912359025268e-05  4.5249220667422282e-05  3.5096316239002044e-05  2.7283172399221834e-05  2.1167450041139611e-05  1.6448859031120711e-05  1.2793819530230104e-05  1.0017619837627621e-05  7.8791464567081285e-06  6.2636757687168330e-06  5.0610925574961789e-06  4.1954588160955491e-06  3.6317490428005407e-06  3.2874655303904872e-06  6.9286467029315749e-02  6.9324826977731333e-02  6.9316148747930378e-02  6.9284486231904446e-02  6.9252643631250471e-02  6.9365769482163955e-02  6.9310533805275104e-02  6.9214916887011049e-02  6.9263228342040448e-02  6.9376308256239902e-02  6.9179081676822782e-02  6.9256412530293618e-02  6.9348357487742249e-02  6.9338848458780605e-02  6.9327091393512535e-02  6.9232051498474070e-02  6.9212720507016573e-02  6.9149612182776835e-02  6.9277911779350665e-02  6.9279687547063248e-02  6.9156751920137871e-02  6.9191130901370815e-02  6.9297576787785128e-02  6.9312642923652010e-02  6.9227442783004828e-02  6.9215368018882562e-02  6.9240748282208692e-02  6.9218521907148098e-02  6.9304723619666123e-02  6.9249226472665695e-02  6.9212275557395606e-02  6.9232372217175750e-02  6.9247600287884112e-02  6.9184644794723443e-02  6.9292793245205070e-02  6.9499706994566368e-02  6.9278941424507468e-02  6.9454569372970731e-02  6.9501419577700174e-02  6.9463723132276528e-02  6.9795419307699391e-02  6.9874248983765569e-02  6.9931868773217332e-02  7.0271120666689141e-02  7.0410354079060836e-02  7.0827441633860622e-02  7.1418361648581979e-02  7.2005357371399195e-02  7.2579097220700300e-02  7.3447839091449002e-02  7.4368314563772561e-02  7.5278372376647168e-02  7.6589146665608052e-02  7.7747235110480178e-02  7.8938399500377843e-02  8.0205485214924280e-02  8.1246452888842274e-02  8.2102549346589171e-02  8.3210071163940566e-02  8.3859184097202666e-02  8.4352044071798304e-02  8.4882272708346085e-02  8.4981426864773238e-02  8.5321976352870338e-02  8.5492880122772660e-02  8.5561694889838044e-02  8.5507742426871897e-02  8.5333338810172674e-02  8.5471168899431058e-02  8.5457658181784760e-02  8.5362554936416632e-02  8.5281991800742946e-02  8.5222847173852173e-02  8.5156883972155192e-02  8.4930423426604396e-02  8.5003154435486949e-02  8.4908773508915500e-02  8.4795725816933523e-02  8.4879753043267961e-02  8.4775342757520758e-02  8.4702991569137118e-02  8.4820718608118253e-02  8.4882192004359744e-02  8.4781022272417239e-02  8.4800012341471900e-02  8.5108134415204123e-02  8.5098849896851833e-02  8.5138048744237776e-02  8.5151232715286712e-02  8.5086089920705613e-02  8.5220606315027078e-02  8.5310381182785486e-02  8.5327536718987421e-02  8.5392029350554871e-02  8.5251060474419479e-02  8.5424544038947892e-02  8.5589960818992783e-02  8.5697048296260722e-02  8.5663696493518682e-02  8.5757293689515596e-02  8.5835710603909182e-02  8.5941710186351578e-02  8.5961807836003767e-02  8.6092372865897271e-02  8.6159392695860496e-02  8.6120750352804878e-02  8.6178974966792041e-02  8.6148606008568565e-02  8.6005232812134347e-02  8.6223727305409920e-02  8.6285361445629594e-02  6.9288633980981104e-02  6.9324541401723019e-02  6.9317426845464047e-02  6.9285574501048094e-02  6.9252986516918760e-02  6.9368686724979936e-02  6.9307755437188978e-02  6.9216321281151419e-02  6.9260155015259978e-02  6.9370428435650652e-02  6.9189133775949638e-02  6.9249228830518109e-02  6.9342004838227861e-02  6.9333401187100602e-02  6.9323661212919940e-02  6.9234714869041855e-02  6.9213304926939279e-02  6.9132691280885880e-02  6.9268521643502695e-02  6.9296074862685561e-02  6.9170669369715901e-02  6.9214966686432455e-02  6.9299630775852855e-02  6.9314308088732318e-02  6.9224612670576488e-02  6.9213635369197363e-02  6.9241307859642068e-02  6.9213695544208753e-02  6.9286246062332954e-02  6.9223142663640963e-02  6.9176246392530741e-02  6.9180939476634104e-02  6.9173647596104962e-02  6.9092187798233312e-02  6.9172983378451056e-02  6.9355593182769001e-02  6.9088360977700991e-02  6.9215078453200934e-02  6.9190557935271749e-02  6.9064136364386824e-02  6.9291702594434026e-02  6.9225110129617060e-02  6.9104194295886476e-02  6.9212478195521204e-02  6.9051076299160338e-02  6.9088129155422479e-02  6.9204709867565578e-02  6.9217536275343605e-02  6.9086483505472890e-02  6.9126289998498430e-02  6.9100948091860265e-02  6.8933278131064424e-02  6.9075728006253001e-02  6.9034443151168468e-02  6.8985685955368609e-02  6.9021576323438777e-02  6.8955788452312455e-02  6.8813576776466823e-02  6.8985863305553077e-02  6.8924181901174414e-02  6.8838870238637329e-02  6.8916955885292619e-02  6.8735946001699286e-02  6.8826072429985022e-02  6.8843921488529705e-02  6.8827283802172540e-02  6.8753088375475974e-02  6.8619234842907467e-02  6.8760042879822236e-02  6.8805066137573936e-02  6.8797203032803719e-02  6.8784046541646521e-02  6.8821022918897051e-02  6.8847297674016580e-02  6.8741731322364136e-02  6.8872205129674499e-02  6.8858903114363823e-02  6.8814114432069182e-02  6.8911119819935487e-02  6.8833868876931548e-02  6.8761200175593909e-02  6.8826910692448062e-02  6.8833895536226389e-02  6.8737273168006305e-02  6.8678514036388527e-02  6.8867893303740033e-02  6.8816049310034308e-02  6.8813777204373483e-02  6.8801068033312471e-02  6.8727339173171281e-02  6.8810379988211975e-02  6.8853600128642320e-02  6.8827607859506756e-02  6.8829263718360442e-02  6.8659335378003603e-02  6.8746627839986640e-02  6.8823414223065635e-02  6.8854110679439445e-02  6.8762147953521716e-02  6.8774500238679911e-02  6.8768068826663906e-02  6.8791524545420854e-02  6.8757483456088272e-02  6.8818210764219540e-02  6.8839655338045563e-02  6.8792048832166025e-02  6.8817362267732912e-02  6.8784733160587544e-02  6.8652603448794286e-02  6.8839536350191632e-02  6.8901077316972204e-02  9.9190499485544814e-01  9.9722696452866988e-01  9.9246502551826010e-01  9.9412685469975781e-01  9.9522824050591141e-01  9.9418394816976141e-01  9.9451517129593703e-01  9.9517142539936687e-01  9.9401262390457223e-01  9.9440830019410897e-01  9.9305445437653694e-01  9.9648888777548739e-01  9.9370472716373182e-01  9.9517809239083221e-01  9.9478875769482344e-01  9.9542693509803748e-01  9.9493229587933285e-01  9.9485673275206032e-01  9.9546426186905579e-01  9.9526884755866818e-01  9.9538182612653792e-01  9.9557288242349362e-01  9.9542214215346314e-01  9.9576478752247555e-01  9.9575601584333151e-01  9.9390204293974871e-01  9.9787644733062963e-01  9.9448635682319197e-01  9.9574216388435111e-01  9.9467282703721049e-01  9.9426579756061528e-01  9.9434893972569516e-01  9.9476765861278160e-01  9.9576249586273058e-01  9.9438222893418438e-01  9.9787967742251016e-01  9.9388192313801116e-01  9.9390997339932774e-01  9.9758449393125892e-01  9.9337463626042410e-01  9.9423386728202834e-01  9.9412887151442164e-01  9.9546032565531872e-01  9.9485881996058545e-01  9.9452913777654250e-01  9.9490221865998096e-01  9.9387283428788964e-01  9.9443171469597735e-01  9.9487370439409073e-01  9.9429088558171841e-01  9.9517933618952303e-01  9.9430336509740658e-01  9.9485174513350305e-01  9.9334337276637663e-01  9.9593207614087453e-01  3.4491965548179407e-04  3.6421922638990800e-04  4.4441932829013085e-04  5.0861755775345090e-04  3.0209001857580613e-03  2.6278728286347301e-03  2.7666190543333287e-03  3.3450954886760473e-03  5.7982775020644966e-05  5.2188713324471779e-05  4.6048243426288225e-05  5.1520435852322795e-05  4.4703579789816591e-03  5.4146518368039986e-05  5.1216727725736481e-03  4.9600582999453618e-03  6.1963618174827768e-03  3.0712530746565681e-05  2.6277905647420605e-05  2.4943696279087021e-05  7.4205145762638479e