<?xml version="1.0"?>
<VTKFile type="UnstructuredGrid"  version="0.1"  >
<UnstructuredGrid>
<Piece  NumberOfPoints="15540" NumberOfCells="30546">
<Points>
<DataArray  type="Float64"  NumberOfComponents="3"  format="ascii">0 0 0  -0.5 -0.5 0  0.5 -0.5 0  0.5 0 0  0.5 0.5 0  -0.5 0.5 0  -0.5 0.0001 0  -0.5 -0.0001 0  0.5 0.1 0  0.5 -0.1 0  -0.5 -0.1 0  -0.5 0.1 0  -0.4900000000000277 -0.5 0  -0.4800000000000555 -0.5 0  -0.4700000000000832 -0.5 0  -0.4600000000001109 -0.5 0  -0.4500000000001387 -0.5 0  -0.4400000000001664 -0.5 0  -0.4300000000001942 -0.5 0  -0.4200000000002219 -0.5 0  -0.4100000000002497 -0.5 0  -0.4000000000002774 -0.5 0  -0.3900000000003052 -0.5 0  -0.3800000000003328 -0.5 0  -0.3700000000003606 -0.5 0  -0.3600000000003883 -0.5 0  -0.3500000000004161 -0.5 0  -0.3400000000004438 -0.5 0  -0.3300000000004716 -0.5 0  -0.3200000000004993 -0.5 0  -0.3100000000005271 -0.5 0  -0.3000000000005548 -0.5 0  -0.2900000000005825 -0.5 0  -0.2800000000006103 -0.5 0  -0.2700000000006381 -0.5 0  -0.2600000000006658 -0.5 0  -0.2500000000006935 -0.5 0  -0.2400000000007212 -0.5 0  -0.230000000000749 -0.5 0  -0.2200000000007767 -0.5 0  -0.2100000000008044 -0.5 0  -0.2000000000008322 -0.5 0  -0.19000000000086 -0.5 0  -0.1800000000008877 -0.5 0  -0.1700000000009154 -0.5 0  -0.1600000000009431 -0.5 0  -0.1500000000009709 -0.5 0  -0.1400000000009986 -0.5 0  -0.1300000000010264 -0.5 0  -0.1200000000010541 -0.5 0  -0.1100000000010818 -0.5 0  -0.1000000000011096 -0.5 0  -0.09000000000113734 -0.5 0  -0.08000000000116503 -0.5 0  -0.07000000000119283 -0.5 0  -0.06000000000122058 -0.5 0  -0.05000000000124827 -0.5 0  -0.04000000000127607 -0.5 0  -0.03000000000130376 -0.5 0  -0.02000000000133151 -0.5 0  -0.01000000000135925 -0.5 0  -1.376121439022882e-12 -0.5 0  0.009999999998640763 -0.5 0  0.01999999999866864 -0.5 0  0.02999999999869629 -0.5 0  0.03999999999872406 -0.5 0  0.04999999999875182 -0.5 0  0.05999999999877947 -0.5 0  0.06999999999880724 -0.5 0  0.079999999998835 -0.5 0  0.08999999999886266 -0.5 0  0.09999999999889042 -0.5 0  0.1099999999989182 -0.5 0  0.1199999999989459 -0.5 0  0.1299999999989737 -0.5 0  0.1399999999990014 -0.5 0  0.1499999999990291 -0.5 0  0.1599999999990568 -0.5 0  0.1699999999990847 -0.5 0  0.1799999999991124 -0.5 0  0.1899999999991401 -0.5 0  0.1999999999991678 -0.5 0  0.2099999999991955 -0.5 0  0.2199999999992234 -0.5 0  0.2299999999992511 -0.5 0  0.2399999999992788 -0.5 0  0.2499999999993066 -0.5 0  0.2599999999993342 -0.5 0  0.269999999999362 -0.5 0  0.2799999999993897 -0.5 0  0.2899999999994175 -0.5 0  0.2999999999994452 -0.5 0  0.3099999999994729 -0.5 0  0.3199999999995007 -0.5 0  0.3299999999995284 -0.5 0  0.3399999999995562 -0.5 0  0.3499999999995839 -0.5 0  0.3599999999996116 -0.5 0  0.3699999999996393 -0.5 0  0.379999999999667 -0.5 0  0.3899999999996949 -0.5 0  0.3999999999997226 -0.5 0  0.4099999999997503 -0.5 0  0.419999999999778 -0.5 0  0.4299999999998058 -0.5 0  0.4399999999998336 -0.5 0  0.4499999999998613 -0.5 0  0.4599999999998891 -0.5 0  0.4699999999999167 -0.5 0  0.4799999999999445 -0.5 0  0.4899999999999722 -0.5 0  0.5 -0.4902110204681464 0  0.5 -0.4804459958734807 0  0.5 -0.4707048677450883 0  0.5 -0.4609875815766065 0  0.5 -0.4512940759251849 0  0.5 -0.4416242912883993 0  0.5 -0.4319781678689807 0  0.5 -0.4223556545383647 0  0.5 -0.4127566896324213 0  0.5 -0.4031812128200121 0  0.5 -0.3936291733057916 0  0.5 -0.3841005081172659 0  0.5 -0.3745951585781932 0  0.5 -0.3651130778999337 0  0.5 -0.3556541993788045 0  0.5 -0.3462184677228392 0  0.5 -0.3368058273705318 0  0.5 -0.3274162224888609 0  0.5 -0.3180495969712945 0  0.5 -0.3087058944357755 0  0.5 -0.299385058222682 0  0.5 -0.2900870313927414 0  0.5 -0.2808117567250807 0  0.5 -0.2715591844628491 0  0.5 -0.2623292564012653 0  0.5 -0.253121909553727 0  0.5 -0.2439371050851549 0  0.5 -0.2347747685524501 0  0.5 -0.2256348634421331 0  0.5 -0.2165173209784076 0  0.5 -0.207422087829958 0  0.5 -0.1983491207029381 0  0.5 -0.1892983550950482 0  0.5 -0.1802697378305253 0  0.5 -0.1712632154965152 0  0.5 -0.1622787344187354 0  0.5 -0.1533162406595534 0  0.5 -0.1443756800160514 0  0.5 -0.1354569980180493 0  0.5 -0.1265601399261414 0  0.5 -0.1176850622761093 0  0.5 -0.1088317009011999 0  0.5 -0.09166666666668973 0  0.5 -0.08333333333337943 0  0.5 -0.07500000000006915 0  0.5 -0.06666666666675886 0  0.5 -0.05833333333344858 0  0.5 -0.05000000000013693 0  0.5 -0.04166666666678191 0  0.5 -0.03333333333342643 0  0.5 -0.02500000000006916 0  0.5 -0.01666666666671188 0  0.5 -0.00833333333335548 0  0.5 0.008333333333318314 0  0.5 0.01666666666663358 0  0.5 0.02499999999994162 0  0.5 0.03333333333325101 0  0.5 0.04166666666655769 0  0.5 0.04999999999986843 0  0.5 0.05833333333322258 0  0.5 0.06666666666657715 0  0.5 0.07499999999993352 0  0.5 0.08333333333328992 0  0.5 0.09166666666664541 0  0.5 0.1088317009011616 0  0.5 0.1176850622760307 0  0.5 0.1265601399260203 0  0.5 0.1354569980178909 0  0.5 0.1443756800158549 0  0.5 0.153316240659315 0  0.5 0.1622787344184454 0  0.5 0.1712632154961752 0  0.5 0.1802697378301332 0  0.5 0.1892983550946039 0  0.5 0.1983491207024433 0  0.5 0.2074220878294123 0  0.5 0.216517320977811 0  0.5 0.2256348634414833 0  0.5 0.2347747685517479 0  0.5 0.2439371050844009 0  0.5 0.2531219095529224 0  0.5 0.2623292564004089 0  0.5 0.2715591844619371 0  0.5 0.2808117567241139 0  0.5 0.290087031391723 0  0.5 0.2993850582216101 0  0.5 0.3087058944347426 0  0.5 0.3180495969703129 0  0.5 0.3274162224879299 0  0.5 0.3368058273696494 0  0.5 0.3462184677220051 0  0.5 0.3556541993780186 0  0.5 0.3651130778991989 0  0.5 0.3745951585775107 0  0.5 0.3841005081166359 0  0.5 0.3936291733052134 0  0.5 0.4031812128194852 0  0.5 0.412756689631945 0  0.5 0.4223556545379392 0  0.5 0.431978167868607 0  0.5 0.4416242912880781 0  0.5 0.4512940759249164 0  0.5 0.4609875815763912 0  0.5 0.4707048677449264 0  0.5 0.4804459958733726 0  0.5 0.4902110204680924 0  0.4900000000000277 0.5 0  0.4800000000000555 0.5 0  0.4700000000000832 0.5 0  0.4600000000001109 0.5 0  0.4500000000001387 0.5 0  0.4400000000001664 0.5 0  0.4300000000001942 0.5 0  0.4200000000002219 0.5 0  0.4100000000002497 0.5 0  0.4000000000002774 0.5 0  0.3900000000003052 0.5 0  0.3800000000003328 0.5 0  0.3700000000003606 0.5 0  0.3600000000003883 0.5 0  0.3500000000004161 0.5 0  0.3400000000004438 0.5 0  0.3300000000004716 0.5 0  0.3200000000004993 0.5 0  0.3100000000005271 0.5 0  0.3000000000005548 0.5 0  0.2900000000005825 0.5 0  0.2800000000006103 0.5 0  0.2700000000006381 0.5 0  0.2600000000006658 0.5 0  0.2500000000006935 0.5 0  0.2400000000007212 0.5 0  0.230000000000749 0.5 0  0.2200000000007767 0.5 0  0.2100000000008044 0.5 0  0.2000000000008322 0.5 0  0.19000000000086 0.5 0  0.1800000000008877 0.5 0  0.1700000000009154 0.5 0  0.1600000000009431 0.5 0  0.1500000000009709 0.5 0  0.1400000000009986 0.5 0  0.1300000000010264 0.5 0  0.1200000000010541 0.5 0  0.1100000000010818 0.5 0  0.1000000000011096 0.5 0  0.09000000000113734 0.5 0  0.08000000000116503 0.5 0  0.07000000000119283 0.5 0  0.06000000000122058 0.5 0  0.05000000000124827 0.5 0  0.04000000000127607 0.5 0  0.03000000000130376 0.5 0  0.02000000000133151 0.5 0  0.01000000000135925 0.5 0  1.376121439022882e-12 0.5 0  -0.009999999998640763 0.5 0  -0.01999999999866864 0.5 0  -0.02999999999869629 0.5 0  -0.03999999999872406 0.5 0  -0.04999999999875182 0.5 0  -0.05999999999877947 0.5 0  -0.06999999999880724 0.5 0  -0.079999999998835 0.5 0  -0.08999999999886266 0.5 0  -0.09999999999889042 0.5 0  -0.1099999999989182 0.5 0  -0.1199999999989459 0.5 0  -0.1299999999989737 0.5 0  -0.1399999999990014 0.5 0  -0.1499999999990291 0.5 0  -0.1599999999990568 0.5 0  -0.1699999999990847 0.5 0  -0.1799999999991124 0.5 0  -0.1899999999991401 0.5 0  -0.1999999999991678 0.5 0  -0.2099999999991955 0.5 0  -0.2199999999992234 0.5 0  -0.2299999999992511 0.5 0  -0.2399999999992788 0.5 0  -0.2499999999993066 0.5 0  -0.2599999999993342 0.5 0  -0.269999999999362 0.5 0  -0.2799999999993897 0.5 0  -0.2899999999994175 0.5 0  -0.2999999999994452 0.5 0  -0.3099999999994729 0.5 0  -0.3199999999995007 0.5 0  -0.3299999999995284 0.5 0  -0.3399999999995562 0.5 0  -0.3499999999995839 0.5 0  -0.3599999999996116 0.5 0  -0.3699999999996393 0.5 0  -0.379999999999667 0.5 0  -0.3899999999996949 0.5 0  -0.3999999999997226 0.5 0  -0.4099999999997503 0.5 0  -0.419999999999778 0.5 0  -0.4299999999998058 0.5 0  -0.4399999999998336 0.5 0  -0.4499999999998613 0.5 0  -0.4599999999998891 0.5 0  -0.4699999999999167 0.5 0  -0.4799999999999445 0.5 0  -0.4899999999999722 0.5 0  -0.5 0.4902110204681464 0  -0.5 0.4804459958734807 0  -0.5 0.4707048677450883 0  -0.5 0.4609875815766065 0  -0.5 0.4512940759251849 0  -0.5 0.4416242912883993 0  -0.5 0.4319781678689807 0  -0.5 0.4223556545383647 0  -0.5 0.4127566896324213 0  -0.5 0.4031812128200121 0  -0.5 0.3936291733057916 0  -0.5 0.3841005081172659 0  -0.5 0.3745951585781932 0  -0.5 0.3651130778999337 0  -0.5 0.3556541993788045 0  -0.5 0.3462184677228392 0  -0.5 0.3368058273705318 0  -0.5 0.3274162224888609 0  -0.5 0.3180495969712945 0  -0.5 0.3087058944357755 0  -0.5 0.299385058222682 0  -0.5 0.2900870313927414 0  -0.5 0.2808117567250807 0  -0.5 0.2715591844628491 0  -0.5 0.2623292564012653 0  -0.5 0.253121909553727 0  -0.5 0.2439371050851549 0  -0.5 0.2347747685524501 0  -0.5 0.2256348634421331 0  -0.5 0.2165173209784076 0  -0.5 0.207422087829958 0  -0.5 0.1983491207029381 0  -0.5 0.1892983550950482 0  -0.5 0.1802697378305253 0  -0.5 0.1712632154965152 0  -0.5 0.1622787344187354 0  -0.5 0.1533162406595534 0  -0.5 0.1443756800160514 0  -0.5 0.1354569980180493 0  -0.5 0.1265601399261414 0  -0.5 0.1176850622761093 0  -0.5 0.1088317009011999 0  -0.5 0.09167500000001694 0  -0.5 0.08335000000003931 0  -0.5 0.07502500000006167 0  -0.5 0.06670000000008947 0  -0.5 0.05837500000011001 0  -0.5 0.0500500000001328 0  -0.5 0.0417250000001127 0  -0.5 0.03340000000008944 0  -0.5 0.02507500000006573 0  -0.5 0.01675000000004653 0  -0.5 0.008425000000027341 
[...]
<PointData  Scalars="f_26"> 
<DataArray  type="Float64"  Name="f_26"  format="ascii">9.9999999999999989e-01  3.1689909775867502e-06  1.1413611264277153e-05  9.9568039548280673e-01  9.2697889054787638e-06  3.2104266284708671e-06  1.0000000000000000e+00  1.0000000000000000e+00  8.6309665874268512e-02  6.8842427942034323e-02  6.9265523428640993e-02  6.9263570448972425e-02  3.1845099377234260e-06  3.1864464697196350e-06  3.1678213732332262e-06  3.1868757811962381e-06  3.1898061269679345e-06  3.1928595608553510e-06  3.1912537205974607e-06  3.1792727961669648e-06  3.1951312072227662e-06  3.1979942764665162e-06  3.1984939842579331e-06  3.1894437738020862e-06  3.2033499711209190e-06  3.2107498478480342e-06  3.2131466725305887e-06  3.2125975323641262e-06  3.2063342786647686e-06  3.2258203010404750e-06  3.2293460666397011e-06  3.2274025376093657e-06  3.2442919997893490e-06  3.2539436338769841e-06  3.2545351693943348e-06  3.2693585912453721e-06  3.2873155132936393e-06  3.2953052849650307e-06  3.3051939289106546e-06  3.3147744027420086e-06  3.3422705969619218e-06  3.3557689620964508e-06  3.3725279097214381e-06  3.3838274490454298e-06  3.3999238470197567e-06  3.4240013169132970e-06  3.4474706877616962e-06  3.4770514047062997e-06  3.5052830362819752e-06  3.5270037878810787e-06  3.5506485350044765e-06  3.5799886554393205e-06  3.6154665224324716e-06  3.6408174326257609e-06  3.6833468969169998e-06  3.7184005442450273e-06  3.7550773672673355e-06  3.7834103727847210e-06  3.8346312512066799e-06  3.8744743770361417e-06  3.9097878690807843e-06  3.9532250716235980e-06  4.0073448686711748e-06  4.0543471623042035e-06  4.0821359002275051e-06  4.1441105577534493e-06  4.1972585625910323e-06  4.2418271691375484e-06  4.2994287265785939e-06  4.3549695280048749e-06  4.3998544124766951e-06  4.4519622216274303e-06  4.5061356787194926e-06  4.5715775647446012e-06  4.6270197392982060e-06  4.6872511152883468e-06  4.7506322331993655e-06  4.7999519403404322e-06  4.8788841479157580e-06  4.9418490812131460e-06  5.0052675516079163e-06  5.0771928256828771e-06  5.1485770348265471e-06  5.2146854986917751e-06  5.2963409152714900e-06  5.3766956855175262e-06  5.4611769071468684e-06  5.5549272826754720e-06  5.6420663645449921e-06  5.7376550054809371e-06  5.8392873434235720e-06  5.9471304159280213e-06  6.0618462226812003e-06  6.1811381780087882e-06  6.3111662648101576e-06  6.4624140409942543e-06  6.6180073045909167e-06  6.7726126094873485e-06  6.9503882598915016e-06  7.1513090698807976e-06  7.3679672555734700e-06  7.6119725463070590e-06  7.8509924039723451e-06  8.1565117789191645e-06  8.4766596567950927e-06  8.8303516051074731e-06  9.2043001701958049e-06  9.6463565869914092e-06  1.0108623611997687e-05  1.0598548094734626e-05  1.1091508738762595e-05  1.1318180736767806e-05  1.1250702478857791e-05  1.1433193561741229e-05  1.1926967867319552e-05  1.2808169763222897e-05  1.4142585912351327e-05  1.6019073358448626e-05  1.8620931950798706e-05  2.2075609942515438e-05  2.6609955347034868e-05  3.2555577130107934e-05  4.0242928300849153e-05  5.0228718124671064e-05  6.3102099264928302e-05  7.9640580382657722e-05  1.0080698294333363e-04  1.2823846761985988e-04  1.6348977272781601e-04  2.0792430110130273e-04  2.6569473216618550e-04  3.3921353460791923e-04  4.3400010836774439e-04  5.5486671762005008e-04  7.0924429120701254e-04  9.0654100329073636e-04  1.1580076283292605e-03  1.4796106162744060e-03  1.8828122735414707e-03  2.4045606629289969e-03  3.0679660892059231e-03  3.9085240786663660e-03  4.9882300116453407e-03  6.3466772654470448e-03  8.0774365268701832e-03  1.0254655529520734e-02  1.3059106530443641e-02  1.6602218143348502e-02  2.1095588790066747e-02  2.6757408716228701e-02  3.3886429373767082e-02  4.2976386128448021e-02  5.4435488327950782e-02  8.6142665880921482e-02  1.0769652435386429e-01  1.3468300262959546e-01  1.6794659392990605e-01  2.0979742440195526e-01  2.6215086493832929e-01  3.2738588974649241e-01  4.0887919887501550e-01  5.1042650826035085e-01  6.3909038502337767e-01  7.9861651017284574e-01  9.8874056142159217e-01  7.9899052574756668e-01  6.4134535490866107e-01  5.1216011707015929e-01  4.1000436547200658e-01  3.2839682645871165e-01  2.6289137278902047e-01  2.1043520810542374e-01  1.6830770581465510e-01  1.3498801582411346e-01  1.0800181150773751e-01  6.8238970802564580e-02  5.3871084504917635e-02  4.2474804728671600e-02  3.3535756106870908e-02  2.6436558124577045e-02  2.0802892835019422e-02  1.6361180736878120e-02  1.2844661066501471e-02  1.0116156947394147e-02  7.9481666383139672e-03  6.2450465861935379e-03  4.8930287906927923e-03  3.8403449591514907e-03  3.0094901378197531e-03  2.3560691096945765e-03  1.8510926645218166e-03  1.4483939200334551e-03  1.1335656526335501e-03  8.8663065145189678e-04  6.9334523396576131e-04  5.4206343831418439e-04  4.2343254071156098e-04  3.3142256058904101e-04  2.5911564198600285e-04  2.0351439246031155e-04  1.5938679196741946e-04  1.2502007721039039e-04  9.8457884898698800e-05  7.7710966429855914e-05  6.1516307245610896e-05  4.8929828330718292e-05  3.9193669444495019e-05  3.1610540587653150e-05  2.5765442317271089e-05  2.1238678980205436e-05  1.7742403121856684e-05  1.5110938849458067e-05  1.3109289991691541e-05  1.1618543434698289e-05  1.0545811294550591e-05  9.8444681177377773e-06  9.4154843049757690e-06  9.2669889356901258e-06  9.2147835974137493e-06  9.1477474043721491e-06  9.0719628081799542e-06  8.9624227712501386e-06  8.8815183215977447e-06  8.7718241442239597e-06  8.6587833414686214e-06  8.5254560000797376e-06  8.4384539601854126e-06  8.3170011540067711e-06  8.2034293029454597e-06  8.0927626631090678e-06  7.9866184443194317e-06  7.8950243353805699e-06  7.7896617124053215e-06  7.6783404826729058e-06  7.5824211344194450e-06  7.4913992859750906e-06  7.3987377198317611e-06  7.3083948184203399e-06  7.2190565285409956e-06  7.1322087333292903e-06  7.0514782466125626e-06  6.9579856752815562e-06  6.8722165326414524e-06  6.7873490033572584e-06  6.6971372346528006e-06  6.6234272993552524e-06  6.5417438340205371e-06  6.4539706735176542e-06  6.3733515102404831e-06  6.2916008976548795e-06  6.1873170731214743e-06  6.1168957245318926e-06  6.0240620581051709e-06  5.9341073209485100e-06  5.8484876417591181e-06  5.7441085158657391e-06  5.6538483278383386e-06  5.5631935605247681e-06  5.4787945184708213e-06  5.3785885818567268e-06  5.2736445381987328e-06  5.1847403507919137e-06  5.0839179530863134e-06  4.9704401227687480e-06  4.8952640236305330e-06  4.7980286357997061e-06  4.6916741660757163e-06  4.5980270937839135e-06  4.5138363650348727e-06  4.4271790769766117e-06  4.3256084983154984e-06  4.2499880325657619e-06  4.1676040018598436e-06  4.0884453074588791e-06  4.0020570144761328e-06  3.9383072719450709e-06  3.8650607800635741e-06  3.8002732473391667e-06  3.7437664595425327e-06  3.6909496430081344e-06  3.6335419513270558e-06  3.5780338550580238e-06  3.5313941976079653e-06  3.4855626146359598e-06  3.4507307261870072e-06  3.4224893817242637e-06  3.3907222319657394e-06  3.3639323396126473e-06  3.3244049204141199e-06  3.3055251567228390e-06  3.2882332122391563e-06  3.2718013134056383e-06  3.2497992311209250e-06  3.2325005639865956e-06  3.2253603658836571e-06  3.2137105485985406e-06  3.1958030517327328e-06  3.1959894446455308e-06  3.1928962896748569e-06  3.1738286824630361e-06  3.1818983689392469e-06  3.1846254906997330e-06  3.1848386251538866e-06  3.1803465601925337e-06  3.1697997192073516e-06  3.1819489785980658e-06  3.1862148229267043e-06  3.1888558653830643e-06  3.1786750266473110e-06  3.1967986361312983e-06  3.2046553140616702e-06  3.2072501815140882e-06  3.2118269810332425e-06  3.1986810790920645e-06  3.2227534006983603e-06  3.2244575552186252e-06  3.3281902508893123e-06  3.6730212335151494e-06  4.2370078483254732e-06  5.1029199977148224e-06  6.3049596257167095e-06  7.9210100740922334e-06  1.0057281018356867e-05  1.2832285280707122e-05  1.6487086157051342e-05  2.1203657548671667e-05  2.7318320100459843e-05  3.5127190379889009e-05  4.5273494106605429e-05  5.8302096560192681e-05  7.5039706527155423e-05  9.6462439955890023e-05  1.2392028108815817e-04  1.5933254169350555e-04  2.0444411527887894e-04  2.6265392539536440e-04  3.3683136554786954e-04  4.3166631377638935e-04  5.5300484862465303e-04  7.0837865077900183e-04  9.0638038787428112e-04  1.1588893305510392e-03  1.4805415904681836e-03  1.8922243953787524e-03  2.4165970026046933e-03  3.0829800962776702e-03  3.9311286418564542e-03  5.0057230724087761e-03  6.3759662190985573e-03  8.1197697813741691e-03  1.0315881070476776e-02  1.3135014469256107e-02  1.6685943005622667e-02  2.1184115080568795e-02  2.6864966014144315e-02  3.4043832810659876e-02  4.3225827613935362e-02  5.4757835261398810e-02  8.6700134249608915e-02  1.0832481488707443e-01  1.3539670499954293e-01  1.6877170433991670e-01  2.1081775208179565e-01  2.6347962409112058e-01  3.2907188849456315e-01  4.1088841595857767e-01  5.1272291470175890e-01  6.4146256456399497e-01  8.0085078967874779e-01  1.0000000000000000e+00  1.0000000000000000e+00  1.0000000000000000e+00  1.0000000000000000e+00  9.9999999999999989e-01  1.0000000000000000e+00  1.0000000000000000e+00  1.0000000000000000e+00  1.0000000000000000e+00  1.0000000000000000e+00  1.0000000000000000e+00  1.0000000000000000e+00  1.0000000000000000e+00  1.0000000000000000e+00  1.0000000000000000e+00  1.0000000000000000e+00  1.0000000000000000e+00  1.0000000000000000e+00  1.0000000000000000e+00  1.0000000000000000e+00  1.0000000000000000e+00  1.0000000000000000e+00  1.0000000000000000e+00  1.0000000000000000e+00  1.0000000000000000e+00  1.0000000000000000e+00  1.0000000000000000e+00  1.0000000000000000e+00  1.0000000000000000e+00  1.0000000000000000e+00  1.0000000000000000e+00  9.9999999999999989e-01  1.0000000000000000e+00  1.0000000000000000e+00  1.0000000000000000e+00  1.0000000000000000e+00  1.0000000000000000e+00  1.0000000000000000e+00  1.0000000000000000e+00  1.0000000000000000e+00  1.0000000000000000e+00  1.0000000000000000e+00  1.0000000000000000e+00  1.0000000000000000e+00  1.0000000000000000e+00  1.0000000000000000e+00  1.0000000000000000e+00  1.0000000000000000e+00  1.0000000000000000e+00  1.0000000000000000e+00  1.0000000000000000e+00  1.0000000000000000e+00  1.0000000000000000e+00  1.0000000000000000e+00  1.0000000000000000e+00  1.0000000000000000e+00  1.0000000000000000e+00  1.0000000000000000e+00  1.0000000000000000e+00  1.0000000000000000e+00  1.0000000000000000e+00  1.0000000000000000e+00  1.0000000000000000e+00  9.9999999999999989e-01  1.0000000000000000e+00  1.0000000000000000e+00  1.0000000000000000e+00  1.0000000000000000e+00  1.0000000000000000e+00  1.0000000000000000e+00  1.0000000000000000e+00  1.0000000000000000e+00  1.0000000000000000e+00  1.0000000000000000e+00  1.0000000000000000e+00  1.0000000000000000e+00  1.0000000000000000e+00  1.0000000000000000e+00  1.0000000000000000e+00  1.0000000000000000e+00  1.0000000000000000e+00  1.0000000000000000e+00  1.0000000000000000e+00  1.0000000000000000e+00  1.0000000000000000e+00  1.0000000000000000e+00  1.0000000000000000e+00  1.0000000000000000e+00  1.0000000000000000e+00  1.0000000000000000e+00  1.0000000000000000e+00  1.0000000000000000e+00  9.9999999999999989e-01  1.0000000000000000e+00  1.0000000000000000e+00  1.0000000000000000e+00  1.0000000000000000e+00  1.0000000000000000e+00  1.0000000000000000e+00  9.9999999999999989e-01  9.9999999999999989e-01  1.0000000000000000e+00  1.0000000000000000e+00  9.9999999999999989e-01  1.0000000000000000e+00  1.0000000000000000e+00  1.0000000000000000e+00  1.0000000000000000e+00  1.0000000000000000e+00  1.0000000000000000e+00  8.0084211370633662e-01  6.4146390425699218e-01  5.1271195545468784e-01  4.1090606057715745e-01  3.2907730846435140e-01  2.6348063350543310e-01  2.1082093295940754e-01  1.6876833270535352e-01  1.3540471588115366e-01  1.0833074579473548e-01  8.6704598982534992e-02  5.4759761623581316e-02  4.3225363128755502e-02  3.4031200924838252e-02  2.6867433305580276e-02  2.1187026842021700e-02  1.6687807593032265e-02  1.3135691382035354e-02  1.0316949296596160e-02  8.1202000864656568e-03  6.3760029335701868e-03  5.0058845593145595e-03  3.9312005668794541e-03  3.0832341628085078e-03  2.4167447896230113e-03  1.8923200910769540e-03  1.4805749910664697e-03  1.1588756861891296e-03  9.0640626501029139e-04  7.0837398307971419e-04  5.5300577774888924e-04  4.3165761092542110e-04  3.3689787215276690e-04  2.6263764046778316e-04  2.0442767562124680e-04  1.5932179548078861e-04  1.2390307092888770e-04  9.6438089586436265e-05  7.5015371153603862e-05  5.8282917502328861e-05  4.5254025620458863e-05  3.5100875459049885e-05  2.7287440744510161e-05  2.1171385404641436e-05  1.6452420864409140e-05  1.2796972652384381e-05  1.0020322178492253e-05  7.8813645897077534e-06  6.2653708514948879e-06  5.0622243932301493e-06  4.1959688954710779e-06  3.6316407446639130e-06  3.2867811404803992e-06  6.9286468298320192e-02  6.9324828334985933e-02  6.9316150252927866e-02  6.9284487949723805e-02  6.9252645633748541e-02  6.9365771852861094e-02  6.9310536644095089e-02  6.9214920312060516e-02  6.9263232503221514e-02  6.9376313342080109e-02  6.9179087917600704e-02  6.9256420224986057e-02  6.9348367029983649e-02  6.9338860349182782e-02  6.9327106273282021e-02  6.9232070222844028e-02  6.9212744159344405e-02  6.9149642201532219e-02  6.9277950038522287e-02  6.9279736480846246e-02  6.9156814755103144e-02  6.9191211891969667e-02  6.9297681206537551e-02  6.9312778093918545e-02  6.9227618199793325e-02  6.9215596041341795e-02  6.9241044799459639e-02  6.9218908443970661e-02  6.9305227078668777e-02  6.9249883253115901e-02  6.9213134841805843e-02  6.9233494647869293e-02  6.9249067578363382e-02  6.9186562750317288e-02  6.9295297989014293e-02  6.9502982959943962e-02  6.9283213933632251e-02  6.9460150373027205e-02  6.9508679247858945e-02  6.9473178128533861e-02  6.9807685749894557e-02  6.9890116904996372e-02  6.9952326989372371e-02  7.0297431685113987e-02  7.0443903952251710e-02  7.0870089650904744e-02  7.1471996021422540e-02  7.2072071608848487e-02  7.2661317486596072e-02  7.3547768294113663e-02  7.4487424201227920e-02  7.5418075281238062e-02  7.6750407447439883e-02  7.7927970808066127e-02  7.9137117871562440e-02  8.0419848090999446e-02  8.1471870507546257e-02  8.2334953004409350e-02  8.3446987849129378e-02  8.4096503545758039e-02  8.4587225295376753e-02  8.5114621276902697e-02  8.5209266048782137e-02  8.5546169504294278e-02  8.5713389409500823e-02  8.5778718096516313e-02  8.5721319878183266e-02  8.5543299217892665e-02  8.5678356823847834e-02  8.5661581508579193e-02  8.5563275014421278e-02  8.5479664384932291e-02  8.5417978581833989e-02  8.5350198009813139e-02  8.5122321173819460e-02  8.5195109536752592e-02  8.5101281534600004e-02  8.4989568452586706e-02  8.5076007420682734e-02  8.4973793973545028e-02  8.4903829635133640e-02  8.5024170707400606e-02  8.5087505254460447e-02  8.4987271563766384e-02  8.5007014893664148e-02  8.5316357760916645e-02  8.5307501094751492e-02  8.5347405998478579e-02  8.5361432518323982e-02  8.5297036167889598e-02  8.5432647197779918e-02  8.5522989337105504e-02  8.5539769255041809e-02  8.5603132192948225e-02  8.5459656586581501e-02  8.5630867405355429e-02  8.5793627148740240e-02  8.5898032428443322e-02  8.5862107709606936e-02  8.5954214577174587e-02  8.6031971853272340e-02  8.6138307585736651e-02  8.6159428924797513e-02  8.6292095770544419e-02  8.6361878837618186e-02  8.6326313290617560e-02  8.6388426373506771e-02  8.6361785249708431e-02  8.6221651974151672e-02  8.6443825714315844e-02  8.6507658113773006e-02  6.9288634824573259e-02  6.9324542291870447e-02  6.9317427810539400e-02  6.9285575569359603e-02  6.9252987716580838e-02  6.9368688084961092e-02  6.9307756988030642e-02  6.9216323054530016e-02  6.9260157047529580e-02  6.9370430767636590e-02  6.9189136452903546e-02  6.9249231909345343e-02  6.9342008388192183e-02  6.9333405292289998e-02  6.9323665980658117e-02  6.9234720436356798e-02  6.9213311467138078e-02  6.9132699021789035e-02  6.9268530878194318e-02  6.9296085969588112e-02  6.9170682847847137e-02  6.9214983189701595e-02  6.9299651132296941e-02  6.9314333422636168e-02  6.9224644451659281e-02  6.9213675494478683e-02  6.9241358790438703e-02  6.9213760591442852e-02  6.9286329387108950e-02  6.9223249913710219e-02  6.9176385146178174e-02  6.9181119166285776e-02  6.9173880903569782e-02  6.9092491164830058e-02  6.9173378019135576e-02  6.9356108272261144e-02  6.9089031658558495e-02  6.9215954074810598e-02  6.9191698726712880e-02  6.9065625374697653e-02  6.9293640877430646e-02  6.9227630844852853e-02  6.9107466374461496e-02  6.9216721448050800e-02  6.9056551953727771e-02  6.9095187650062367e-02  6.9213743909554967e-02  6.9229024637287390e-02  6.9101031120940265e-02  6.9144543036163214e-02  6.9123561401171874e-02  6.8961052028324893e-02  6.9109494357680032e-02  6.9074556440705467e-02  6.9032778281726909e-02  6.9076134132153230e-02  6.9017502877622192e-02  6.8882332425594939e-02  6.9061560882940617e-02  6.9005768245848823e-02  6.8925690377528798e-02  6.9008268256728317e-02  6.8830627802850639e-02  6.8923701511443350e-02  6.8943676704872961e-02  6.8928477181209688e-02  6.8855073052691881e-02  6.8721461852892074e-02  6.8862587477276388e-02  6.8907474954650744e-02  6.8899224784915322e-02  6.8885497609366297e-02  6.8921889470397957e-02  6.8947550417669687e-02  6.8841169005283240e-02  6.8971215280477324e-02  6.8957363442827616e-02  6.8912092598735986e-02  6.9008950874363942e-02  6.8931486931463365e-02  6.8858777281318992e-02  6.8924802442281191e-02  6.8932146772516911e-02  6.8835870561516022e-02  6.8777559165105945e-02  6.8967760331710440e-02  6.8916384701279004e-02  6.8914616123276207e-02  6.8902355751130975e-02  6.8828971133763725e-02  6.8912598855913859e-02  6.8956395395082401e-02  6.8930934859286572e-02  6.8933240386899478e-02  6.8763756748984869e-02  6.8851896988785952e-02  6.8929522184453224e-02  6.8960952753603880e-02  6.8869478231061196e-02  6.8882384025523519e-02  6.8876373610523636e-02  6.8900188501753695e-02  6.8866288754529714e-02  6.8927191054723599e-02  6.8948637980064995e-02  6.8900845020093776e-02  6.8926015608739399e-02  6.8893144152599520e-02  6.8760635054505387e-02  6.8947710600887141e-02  6.9009267971803345e-02  9.9383543189987544e-01  9.9830773732875799e-01  9.9431750940825736e-01  9.9589065424660239e-01  9.9680525029368261e-01  9.9580976637475993e-01  9.9609147806814802e-01  9.9661431494228014e-01  9.9576661938540045e-01  9.9614228157206508e-01  9.9483933320569218e-01  9.9763583530614308e-01  9.9535482618366600e-01  9.9663109520936100e-01  9.9626146825800033e-01  9.9689595789780194e-01  9.9635953474380989e-01  9.9630209878238496e-01  9.9692162368509685e-01  9.9661467116164837e-01  9.9671364519758099e-01  9.9696873475285797e-01  9.9669655878715491e-01  9.9699847423651389e-01  9.9706232610162726e-01  9.9544065935763559e-01  9.9875019754498440e-01  9.9592606867744005e-01  9.9698576147325646e-01  9.9623341043963820e-01  9.9600630072907692e-01  9.9607027726770370e-01  9.9630119935906669e-01  9.9699812384924313e-01  9.9586520785182941e-01  9.9873143203793224e-01  9.9544575422687553e-01  9.9560042821200279e-01  9.9855013699919226e-01  9.9510136208544475e-01  9.9595405476472809e-01  9.9582696632970491e-01  9.9685331184248793e-01  9.9633707539553429e-01  9.9607195655992598e-01  9.9655346762660280e-01  9.9562453790945982e-01  9.9605985279553133e-01  9.9637882378844989e-01  9.9588894230589387e-01  9.9673468202529836e-01  9.9591401886013120e-01  9.9638352188280088e-01  9.9507041688367848e-01  9.9713209058605745e-01  3.4541078417565159e-04  3.6423892339161541e-04  4.4594863259407250e-04  5.1064116998828771e-04  3.0281413315097002e-03  2.6283909978418235e-03  2.7666272684403938e-03  3.3536853103436071e-03  5.8730118922503628e-05  5.2518487288619551e-05  4.6087242563930348e-05  5.1524047620260162e-05  4.4820046788267192e-03  5.5368151065863949e-05  5.1270140522142269e-03  4.9601350513626729e-03  6.2121345206705304e-03  3.1183671794847578e-05  2.6283768105367981e-05  2.5058130321363638e-05  7.4392657160971777e