<?xml version="1.0"?>
<VTKFile type="UnstructuredGrid"  version="0.1"  >
<UnstructuredGrid>
<Piece  NumberOfPoints="15540" NumberOfCells="30546">
<Points>
<DataArray  type="Float64"  NumberOfComponents="3"  format="ascii">0 0 0  -0.5 -0.5 0  0.5 -0.5 0  0.5 0 0  0.5 0.5 0  -0.5 0.5 0  -0.5 0.0001 0  -0.5 -0.0001 0  0.5 0.1 0  0.5 -0.1 0  -0.5 -0.1 0  -0.5 0.1 0  -0.4900000000000277 -0.5 0  -0.4800000000000555 -0.5 0  -0.4700000000000832 -0.5 0  -0.4600000000001109 -0.5 0  -0.4500000000001387 -0.5 0  -0.4400000000001664 -0.5 0  -0.4300000000001942 -0.5 0  -0.4200000000002219 -0.5 0  -0.4100000000002497 -0.5 0  -0.4000000000002774 -0.5 0  -0.3900000000003052 -0.5 0  -0.3800000000003328 -0.5 0  -0.3700000000003606 -0.5 0  -0.3600000000003883 -0.5 0  -0.3500000000004161 -0.5 0  -0.3400000000004438 -0.5 0  -0.3300000000004716 -0.5 0  -0.3200000000004993 -0.5 0  -0.3100000000005271 -0.5 0  -0.3000000000005548 -0.5 0  -0.2900000000005825 -0.5 0  -0.2800000000006103 -0.5 0  -0.2700000000006381 -0.5 0  -0.2600000000006658 -0.5 0  -0.2500000000006935 -0.5 0  -0.2400000000007212 -0.5 0  -0.230000000000749 -0.5 0  -0.2200000000007767 -0.5 0  -0.2100000000008044 -0.5 0  -0.2000000000008322 -0.5 0  -0.19000000000086 -0.5 0  -0.1800000000008877 -0.5 0  -0.1700000000009154 -0.5 0  -0.1600000000009431 -0.5 0  -0.1500000000009709 -0.5 0  -0.1400000000009986 -0.5 0  -0.1300000000010264 -0.5 0  -0.1200000000010541 -0.5 0  -0.1100000000010818 -0.5 0  -0.1000000000011096 -0.5 0  -0.09000000000113734 -0.5 0  -0.08000000000116503 -0.5 0  -0.07000000000119283 -0.5 0  -0.06000000000122058 -0.5 0  -0.05000000000124827 -0.5 0  -0.04000000000127607 -0.5 0  -0.03000000000130376 -0.5 0  -0.02000000000133151 -0.5 0  -0.01000000000135925 -0.5 0  -1.376121439022882e-12 -0.5 0  0.009999999998640763 -0.5 0  0.01999999999866864 -0.5 0  0.02999999999869629 -0.5 0  0.03999999999872406 -0.5 0  0.04999999999875182 -0.5 0  0.05999999999877947 -0.5 0  0.06999999999880724 -0.5 0  0.079999999998835 -0.5 0  0.08999999999886266 -0.5 0  0.09999999999889042 -0.5 0  0.1099999999989182 -0.5 0  0.1199999999989459 -0.5 0  0.1299999999989737 -0.5 0  0.1399999999990014 -0.5 0  0.1499999999990291 -0.5 0  0.1599999999990568 -0.5 0  0.1699999999990847 -0.5 0  0.1799999999991124 -0.5 0  0.1899999999991401 -0.5 0  0.1999999999991678 -0.5 0  0.2099999999991955 -0.5 0  0.2199999999992234 -0.5 0  0.2299999999992511 -0.5 0  0.2399999999992788 -0.5 0  0.2499999999993066 -0.5 0  0.2599999999993342 -0.5 0  0.269999999999362 -0.5 0  0.2799999999993897 -0.5 0  0.2899999999994175 -0.5 0  0.2999999999994452 -0.5 0  0.3099999999994729 -0.5 0  0.3199999999995007 -0.5 0  0.3299999999995284 -0.5 0  0.3399999999995562 -0.5 0  0.3499999999995839 -0.5 0  0.3599999999996116 -0.5 0  0.3699999999996393 -0.5 0  0.379999999999667 -0.5 0  0.3899999999996949 -0.5 0  0.3999999999997226 -0.5 0  0.4099999999997503 -0.5 0  0.419999999999778 -0.5 0  0.4299999999998058 -0.5 0  0.4399999999998336 -0.5 0  0.4499999999998613 -0.5 0  0.4599999999998891 -0.5 0  0.4699999999999167 -0.5 0  0.4799999999999445 -0.5 0  0.4899999999999722 -0.5 0  0.5 -0.4902110204681464 0  0.5 -0.4804459958734807 0  0.5 -0.4707048677450883 0  0.5 -0.4609875815766065 0  0.5 -0.4512940759251849 0  0.5 -0.4416242912883993 0  0.5 -0.4319781678689807 0  0.5 -0.4223556545383647 0  0.5 -0.4127566896324213 0  0.5 -0.4031812128200121 0  0.5 -0.3936291733057916 0  0.5 -0.3841005081172659 0  0.5 -0.3745951585781932 0  0.5 -0.3651130778999337 0  0.5 -0.3556541993788045 0  0.5 -0.3462184677228392 0  0.5 -0.3368058273705318 0  0.5 -0.3274162224888609 0  0.5 -0.3180495969712945 0  0.5 -0.3087058944357755 0  0.5 -0.299385058222682 0  0.5 -0.2900870313927414 0  0.5 -0.2808117567250807 0  0.5 -0.2715591844628491 0  0.5 -0.2623292564012653 0  0.5 -0.253121909553727 0  0.5 -0.2439371050851549 0  0.5 -0.2347747685524501 0  0.5 -0.2256348634421331 0  0.5 -0.2165173209784076 0  0.5 -0.207422087829958 0  0.5 -0.1983491207029381 0  0.5 -0.1892983550950482 0  0.5 -0.1802697378305253 0  0.5 -0.1712632154965152 0  0.5 -0.1622787344187354 0  0.5 -0.1533162406595534 0  0.5 -0.1443756800160514 0  0.5 -0.1354569980180493 0  0.5 -0.1265601399261414 0  0.5 -0.1176850622761093 0  0.5 -0.1088317009011999 0  0.5 -0.09166666666668973 0  0.5 -0.08333333333337943 0  0.5 -0.07500000000006915 0  0.5 -0.06666666666675886 0  0.5 -0.05833333333344858 0  0.5 -0.05000000000013693 0  0.5 -0.04166666666678191 0  0.5 -0.03333333333342643 0  0.5 -0.02500000000006916 0  0.5 -0.01666666666671188 0  0.5 -0.00833333333335548 0  0.5 0.008333333333318314 0  0.5 0.01666666666663358 0  0.5 0.02499999999994162 0  0.5 0.03333333333325101 0  0.5 0.04166666666655769 0  0.5 0.04999999999986843 0  0.5 0.05833333333322258 0  0.5 0.06666666666657715 0  0.5 0.07499999999993352 0  0.5 0.08333333333328992 0  0.5 0.09166666666664541 0  0.5 0.1088317009011616 0  0.5 0.1176850622760307 0  0.5 0.1265601399260203 0  0.5 0.1354569980178909 0  0.5 0.1443756800158549 0  0.5 0.153316240659315 0  0.5 0.1622787344184454 0  0.5 0.1712632154961752 0  0.5 0.1802697378301332 0  0.5 0.1892983550946039 0  0.5 0.1983491207024433 0  0.5 0.2074220878294123 0  0.5 0.216517320977811 0  0.5 0.2256348634414833 0  0.5 0.2347747685517479 0  0.5 0.2439371050844009 0  0.5 0.2531219095529224 0  0.5 0.2623292564004089 0  0.5 0.2715591844619371 0  0.5 0.2808117567241139 0  0.5 0.290087031391723 0  0.5 0.2993850582216101 0  0.5 0.3087058944347426 0  0.5 0.3180495969703129 0  0.5 0.3274162224879299 0  0.5 0.3368058273696494 0  0.5 0.3462184677220051 0  0.5 0.3556541993780186 0  0.5 0.3651130778991989 0  0.5 0.3745951585775107 0  0.5 0.3841005081166359 0  0.5 0.3936291733052134 0  0.5 0.4031812128194852 0  0.5 0.412756689631945 0  0.5 0.4223556545379392 0  0.5 0.431978167868607 0  0.5 0.4416242912880781 0  0.5 0.4512940759249164 0  0.5 0.4609875815763912 0  0.5 0.4707048677449264 0  0.5 0.4804459958733726 0  0.5 0.4902110204680924 0  0.4900000000000277 0.5 0  0.4800000000000555 0.5 0  0.4700000000000832 0.5 0  0.4600000000001109 0.5 0  0.4500000000001387 0.5 0  0.4400000000001664 0.5 0  0.4300000000001942 0.5 0  0.4200000000002219 0.5 0  0.4100000000002497 0.5 0  0.4000000000002774 0.5 0  0.3900000000003052 0.5 0  0.3800000000003328 0.5 0  0.3700000000003606 0.5 0  0.3600000000003883 0.5 0  0.3500000000004161 0.5 0  0.3400000000004438 0.5 0  0.3300000000004716 0.5 0  0.3200000000004993 0.5 0  0.3100000000005271 0.5 0  0.3000000000005548 0.5 0  0.2900000000005825 0.5 0  0.2800000000006103 0.5 0  0.2700000000006381 0.5 0  0.2600000000006658 0.5 0  0.2500000000006935 0.5 0  0.2400000000007212 0.5 0  0.230000000000749 0.5 0  0.2200000000007767 0.5 0  0.2100000000008044 0.5 0  0.2000000000008322 0.5 0  0.19000000000086 0.5 0  0.1800000000008877 0.5 0  0.1700000000009154 0.5 0  0.1600000000009431 0.5 0  0.1500000000009709 0.5 0  0.1400000000009986 0.5 0  0.1300000000010264 0.5 0  0.1200000000010541 0.5 0  0.1100000000010818 0.5 0  0.1000000000011096 0.5 0  0.09000000000113734 0.5 0  0.08000000000116503 0.5 0  0.07000000000119283 0.5 0  0.06000000000122058 0.5 0  0.05000000000124827 0.5 0  0.04000000000127607 0.5 0  0.03000000000130376 0.5 0  0.02000000000133151 0.5 0  0.01000000000135925 0.5 0  1.376121439022882e-12 0.5 0  -0.009999999998640763 0.5 0  -0.01999999999866864 0.5 0  -0.02999999999869629 0.5 0  -0.03999999999872406 0.5 0  -0.04999999999875182 0.5 0  -0.05999999999877947 0.5 0  -0.06999999999880724 0.5 0  -0.079999999998835 0.5 0  -0.08999999999886266 0.5 0  -0.09999999999889042 0.5 0  -0.1099999999989182 0.5 0  -0.1199999999989459 0.5 0  -0.1299999999989737 0.5 0  -0.1399999999990014 0.5 0  -0.1499999999990291 0.5 0  -0.1599999999990568 0.5 0  -0.1699999999990847 0.5 0  -0.1799999999991124 0.5 0  -0.1899999999991401 0.5 0  -0.1999999999991678 0.5 0  -0.2099999999991955 0.5 0  -0.2199999999992234 0.5 0  -0.2299999999992511 0.5 0  -0.2399999999992788 0.5 0  -0.2499999999993066 0.5 0  -0.2599999999993342 0.5 0  -0.269999999999362 0.5 0  -0.2799999999993897 0.5 0  -0.2899999999994175 0.5 0  -0.2999999999994452 0.5 0  -0.3099999999994729 0.5 0  -0.3199999999995007 0.5 0  -0.3299999999995284 0.5 0  -0.3399999999995562 0.5 0  -0.3499999999995839 0.5 0  -0.3599999999996116 0.5 0  -0.3699999999996393 0.5 0  -0.379999999999667 0.5 0  -0.3899999999996949 0.5 0  -0.3999999999997226 0.5 0  -0.4099999999997503 0.5 0  -0.419999999999778 0.5 0  -0.4299999999998058 0.5 0  -0.4399999999998336 0.5 0  -0.4499999999998613 0.5 0  -0.4599999999998891 0.5 0  -0.4699999999999167 0.5 0  -0.4799999999999445 0.5 0  -0.4899999999999722 0.5 0  -0.5 0.4902110204681464 0  -0.5 0.4804459958734807 0  -0.5 0.4707048677450883 0  -0.5 0.4609875815766065 0  -0.5 0.4512940759251849 0  -0.5 0.4416242912883993 0  -0.5 0.4319781678689807 0  -0.5 0.4223556545383647 0  -0.5 0.4127566896324213 0  -0.5 0.4031812128200121 0  -0.5 0.3936291733057916 0  -0.5 0.3841005081172659 0  -0.5 0.3745951585781932 0  -0.5 0.3651130778999337 0  -0.5 0.3556541993788045 0  -0.5 0.3462184677228392 0  -0.5 0.3368058273705318 0  -0.5 0.3274162224888609 0  -0.5 0.3180495969712945 0  -0.5 0.3087058944357755 0  -0.5 0.299385058222682 0  -0.5 0.2900870313927414 0  -0.5 0.2808117567250807 0  -0.5 0.2715591844628491 0  -0.5 0.2623292564012653 0  -0.5 0.253121909553727 0  -0.5 0.2439371050851549 0  -0.5 0.2347747685524501 0  -0.5 0.2256348634421331 0  -0.5 0.2165173209784076 0  -0.5 0.207422087829958 0  -0.5 0.1983491207029381 0  -0.5 0.1892983550950482 0  -0.5 0.1802697378305253 0  -0.5 0.1712632154965152 0  -0.5 0.1622787344187354 0  -0.5 0.1533162406595534 0  -0.5 0.1443756800160514 0  -0.5 0.1354569980180493 0  -0.5 0.1265601399261414 0  -0.5 0.1176850622761093 0  -0.5 0.1088317009011999 0  -0.5 0.09167500000001694 0  -0.5 0.08335000000003931 0  -0.5 0.07502500000006167 0  -0.5 0.06670000000008947 0  -0.5 0.05837500000011001 0  -0.5 0.0500500000001328 0  -0.5 0.0417250000001127 0  -0.5 0.03340000000008944 0  -0.5 0.02507500000006573 0  -0.5 0.01675000000004653 0  -0.5 0.008425000000027341 
[...]
<PointData  Scalars="f_26"> 
<DataArray  type="Float64"  Name="f_26"  format="ascii">1.0000000000000000e+00  3.1612982907106061e-06  6.9815737664069368e-06  9.9605352339800379e-01  6.4081752647673508e-06  3.1804015647192019e-06  1.0000000000000000e+00  1.0000000000000000e+00  8.6357010498895159e-02  6.8861276751460684e-02  6.9265521643647035e-02  6.9263568762495162e-02  3.1767186109361463e-06  3.1782597171143664e-06  3.1589845045036787e-06  3.1772155881886669e-06  3.1792284303445946e-06  3.1812915536797589e-06  3.1786309025894833e-06  3.1655128914134324e-06  3.1801677545671845e-06  3.1817214360342885e-06  3.1807901286089221e-06  3.1701442496531148e-06  3.1823110427308747e-06  3.1877832261961230e-06  3.1880283176546823e-06  3.1850833218939727e-06  3.1761249183629260e-06  3.1926610483443630e-06  3.1928941369779337e-06  3.1872955918037374e-06  3.2001925234936969e-06  3.2054408687918927e-06  3.2011481700482773e-06  3.2107114176528018e-06  3.2229114922564653e-06  3.2246068870820420e-06  3.2276742807984924e-06  3.2298484712329554e-06  3.2493877476934005e-06  3.2542541757578241e-06  3.2617666295181138e-06  3.2631173500314370e-06  3.2685904702979712e-06  3.2813185095056761e-06  3.2926978176934191e-06  3.3094633788056107e-06  3.3241023287000524e-06  3.3314106320856414e-06  3.3398678550420047e-06  3.3532518063300875e-06  3.3719738396536195e-06  3.3797280038953524e-06  3.4039420757430317e-06  3.4198383020758375e-06  3.4366204667025818e-06  3.4442613214028306e-06  3.4740681551714226e-06  3.4917743106805808e-06  3.5042321520732976e-06  3.5241334710189501e-06  3.5540230070139992e-06  3.5761780547421241e-06  3.5785378026007685e-06  3.6143223858111353e-06  3.6408199564744722e-06  3.6582140297146882e-06  3.6879740148979062e-06  3.7151246596268709e-06  3.7311625302769859e-06  3.7538429722331356e-06  3.7779467579144250e-06  3.8125738934140125e-06  3.8368033629975155e-06  3.8650910826154873e-06  3.8957918831714415e-06  3.9119698574388624e-06  3.9564660680318708e-06  3.9844102430480771e-06  4.0118312800802270e-06  4.0465420167090988e-06  4.0795237544077668e-06  4.1059716330110945e-06  4.1462907079614991e-06  4.1838001907719432e-06  4.2235314805379550e-06  4.2703236706317901e-06  4.3083811606098548e-06  4.3521851823290480e-06  4.3989538478770142e-06  4.4486918673452317e-06  4.5014966043945674e-06  4.5549545846017720e-06  4.6143541168210479e-06  4.6894342090290552e-06  4.7628287718997538e-06  4.8287898760671845e-06  4.9101265266334058e-06  5.0056137681774788e-06  5.1070214042183275e-06  5.2243610905514536e-06  5.3245692334407743e-06  5.4754225359872036e-06  5.6257991653588114e-06  5.7910340544819645e-06  5.9556031054810994e-06  6.1675562618753811e-06  6.3793475778904436e-06  6.6071405407458810e-06  6.8389077122862225e-06  7.0002015988046140e-06  7.1535864988593466e-06  7.5381164571227289e-06  8.2292398350065184e-06  9.2786293129997250e-06  1.0758585896269142e-05  1.2759570523711889e-05  1.5468667900712061e-05  1.9016090818975237e-05  2.3630087867036149e-05  2.9644152093079301e-05  3.7390820940930150e-05  4.7428248231586816e-05  6.0346854425351964e-05  7.6925403615859538e-05  9.8127745646950587e-05  1.2559289631223252e-04  1.6087570936824635e-04  2.0534094596462251e-04  2.6314342703648974e-04  3.3669570203389199e-04  4.3152040579522133e-04  5.5243046018307483e-04  7.0685980243299050e-04  9.0421967603572398e-04  1.1557646287841620e-03  1.4774659973906096e-03  1.8807891574906532e-03  2.4026961026013963e-03  3.0663016034037185e-03  3.9071142702912518e-03  4.9871480837872196e-03  6.3460103385563826e-03  8.0773005776379921e-03  1.0255188841338929e-02  1.3060508070170104e-02  1.6604719598251622e-02  2.1099488677329921e-02  2.6763075458827300e-02  3.3894321614211589e-02  4.2987131289494607e-02  5.4449826424622684e-02  8.6166936860522486e-02  1.0772753019925461e-01  1.3472241021999395e-01  1.6799631041032423e-01  2.0985999662385876e-01  2.6222934698471112e-01  3.2748386350522213e-01  4.0900078661853007e-01  5.1057589230575262e-01  6.3927366470890989e-01  7.9884260386146011e-01  9.8965182747932923e-01  7.9964245472859696e-01  6.4184728723897810e-01  5.1253175369017290e-01  4.1028563273999297e-01  3.2861191340630619e-01  2.6305694267734298e-01  2.1056361242834787e-01  1.6840759370110511e-01  1.3506602037015106e-01  1.0806262513263137e-01  6.8275312089941018e-02  5.3898840158525078e-02  4.2495862082836192e-02  3.3551625026913362e-02  2.6448356805180560e-02  2.0811495524196640e-02  1.6367288582892520e-02  1.2848809836336454e-02  1.0118799625518626e-02  7.9496195431267951e-03  6.2455707895326248e-03  4.8928204994260881e-03  3.8395689062000393e-03  3.0082685003302166e-03  2.3544963906524056e-03  1.8492517958278130e-03  1.4463384308669354e-03  1.1313423446687673e-03  8.8427572775228737e-04  6.9088713328524032e-04  5.3952428497850032e-04  4.2082830977572476e-04  3.2876888194746347e-04  2.5642080125535437e-04  2.0078880183247867e-04  1.5663562153814562e-04  1.2224705835827768e-04  9.5669021662805794e-05  7.4908771630298972e-05  5.8702697541849092e-05  4.6106974381274662e-05  3.6363372564631229e-05  2.8774233181172368e-05  2.2923637311517057e-05  1.8392068736184336e-05  1.4891982434964230e-05  1.2257807009518394e-05  1.0253527333275428e-05  8.7608992242262704e-06  7.6857235358092251e-06  6.9849375563956585e-06  6.5545582920772517e-06  6.4154024952376595e-06  6.3874665695488795e-06  6.3558005653402324e-06  6.3237306279561184e-06  6.2638637117371868e-06  6.2368365004630373e-06  6.1835511266132217e-06  6.1284247103648312e-06  6.0539509354000117e-06  6.0260010687068232e-06  5.9631931727622188e-06  5.9075790100160520e-06  5.8541153292329015e-06  5.8039607664681941e-06  5.7672348972159759e-06  5.7155172260347794e-06  5.6565148819811971e-06  5.6116765532092213e-06  5.5704370762651487e-06  5.5265209090025139e-06  5.4837460436257396e-06  5.4410292650683774e-06  5.3998201899910563e-06  5.3640608499994690e-06  5.3147407266768698e-06  5.2725079657341632e-06  5.2307986991613348e-06  5.1833192033815065e-06  5.1522020977515231e-06  5.1127861946696110e-06  5.0672045567591257e-06  5.0287121474783745e-06  4.9891596439234123e-06  4.9271646143827790e-06  4.8990584983318102e-06  4.8486938808374264e-06  4.8013273103935318e-06  4.7584005413076333e-06  4.6968759620789186e-06  4.6496071008457737e-06  4.6018509741065527e-06  4.5602897873201891e-06  4.5028028768679574e-06  4.4403467725732070e-06  4.3936826413715569e-06  4.3346257023774059e-06  4.2625652023940213e-06  4.2281040121155437e-06  4.1708374705845914e-06  4.1035997287130542e-06  4.0481117580932074e-06  4.0011361554179901e-06  3.9504339561821115e-06  3.8836856279137370e-06  3.8415602041725235e-06  3.7912364711540660e-06  3.7428101384769423e-06  3.6856350523827158e-06  3.6496023723273519e-06  3.6025554842567021e-06  3.5623857585027138e-06  3.5290101017243581e-06  3.4977824075039969e-06  3.4604426950869999e-06  3.4235433803964124e-06  3.3941062923877041e-06  3.3641071901390889e-06  3.3437297279488478e-06  3.3287228817866017e-06  3.3089454107874581e-06  3.2930049198947338e-06  3.2632680110697433e-06  3.2531091324251842e-06  3.2435907415348381e-06  3.2340622189927294e-06  3.2181321907161793e-06  3.2061032396637122e-06  3.2035315683016814e-06  3.1957717512840428e-06  3.1811380652259704e-06  3.1839814233069101e-06  3.1830187056348328e-06  3.1655726631351236e-06  3.1747673267968432e-06  3.1781632728662323e-06  3.1786180274970582e-06  3.1739462574890321e-06  3.1628273408469805e-06  3.1740125484019771e-06  3.1769597058469407e-06  3.1779392814025899e-06  3.1657945025948717e-06  3.1816631344842850e-06  3.1870571672652527e-06  3.1870318339019811e-06  3.1889560318116508e-06  3.1732362824554997e-06  3.1950796935771615e-06  3.1951521655900825e-06  3.2982372812958962e-06  3.6432120993841761e-06  4.2072643442069934e-06  5.0734876483150131e-06  6.2758248853261260e-06  7.8922455497604649e-06  1.0028959232297879e-05  1.2804410811725456e-05  1.6459791659039497e-05  2.1176973592376141e-05  2.7292291031905378e-05  3.5101869364335608e-05  4.5248933226709842e-05  5.8278339762074195e-05  7.5016784915623777e-05  9.6440411450262280e-05  1.2389916744739976e-04  1.5931235704502895e-04  2.0442490081554635e-04  2.6263569283419496e-04  3.3681413028241312e-04  4.3165008405644990e-04  5.5298962608718507e-04  7.0836442280248612e-04  9.0636715110150158e-04  1.1588770699861571e-03  1.4805302653528500e-03  1.8922139980934874e-03  2.4165874979405763e-03  3.0829714478448744e-03  3.9311208122502390e-03  5.0057160123877318e-03  6.3759598835865907e-03  8.1197641253458741e-03  1.0315876044936638e-02  1.3135010016772475e-02  1.6685939082783322e-02  2.1184111639669097e-02  2.6864963007482492e-02  3.4043830198235335e-02  4.3225825342197148e-02  5.4757833297782485e-02  8.6700132787940934e-02  1.0832481363017366e-01  1.3539670392602554e-01  1.6877170342982387e-01  2.1081775132017322e-01  2.6347962346225640e-01  3.2907188798655668e-01  4.1088841556316619e-01  5.1272291441216922e-01  6.4146256437318949e-01  8.0085078958413991e-01  1.0000000000000000e+00  1.0000000000000000e+00  1.0000000000000000e+00  1.0000000000000000e+00  1.0000000000000000e+00  1.0000000000000000e+00  1.0000000000000000e+00  1.0000000000000000e+00  1.0000000000000000e+00  9.9999999999999989e-01  1.0000000000000000e+00  1.0000000000000000e+00  1.0000000000000000e+00  9.9999999999999989e-01  1.0000000000000000e+00  1.0000000000000000e+00  1.0000000000000000e+00  1.0000000000000000e+00  1.0000000000000000e+00  1.0000000000000000e+00  1.0000000000000000e+00  1.0000000000000000e+00  9.9999999999999989e-01  1.0000000000000000e+00  1.0000000000000000e+00  1.0000000000000000e+00  1.0000000000000000e+00  1.0000000000000000e+00  1.0000000000000000e+00  9.9999999999999989e-01  1.0000000000000000e+00  1.0000000000000000e+00  1.0000000000000000e+00  1.0000000000000000e+00  1.0000000000000000e+00  1.0000000000000000e+00  1.0000000000000000e+00  1.0000000000000000e+00  1.0000000000000000e+00  1.0000000000000000e+00  1.0000000000000000e+00  9.9999999999999989e-01  1.0000000000000000e+00  1.0000000000000000e+00  1.0000000000000000e+00  1.0000000000000000e+00  1.0000000000000000e+00  1.0000000000000000e+00  1.0000000000000000e+00  1.0000000000000000e+00  1.0000000000000000e+00  1.0000000000000000e+00  1.0000000000000000e+00  1.0000000000000000e+00  1.0000000000000000e+00  1.0000000000000000e+00  1.0000000000000000e+00  1.0000000000000000e+00  1.0000000000000000e+00  1.0000000000000000e+00  1.0000000000000000e+00  1.0000000000000000e+00  1.0000000000000000e+00  1.0000000000000000e+00  1.0000000000000000e+00  1.0000000000000000e+00  1.0000000000000000e+00  1.0000000000000000e+00  1.0000000000000000e+00  1.0000000000000000e+00  1.0000000000000000e+00  1.0000000000000000e+00  1.0000000000000000e+00  1.0000000000000000e+00  1.0000000000000000e+00  1.0000000000000000e+00  1.0000000000000000e+00  1.0000000000000000e+00  1.0000000000000000e+00  1.0000000000000000e+00  1.0000000000000000e+00  1.0000000000000000e+00  1.0000000000000000e+00  1.0000000000000000e+00  1.0000000000000000e+00  1.0000000000000000e+00  1.0000000000000000e+00  1.0000000000000000e+00  1.0000000000000000e+00  1.0000000000000000e+00  1.0000000000000000e+00  1.0000000000000000e+00  1.0000000000000000e+00  1.0000000000000000e+00  1.0000000000000000e+00  1.0000000000000000e+00  1.0000000000000000e+00  1.0000000000000000e+00  1.0000000000000000e+00  1.0000000000000000e+00  1.0000000000000000e+00  1.0000000000000000e+00  1.0000000000000000e+00  1.0000000000000000e+00  1.0000000000000000e+00  1.0000000000000000e+00  1.0000000000000000e+00  1.0000000000000000e+00  1.0000000000000000e+00  1.0000000000000000e+00  8.0084211359653668e-01  6.4146390403616271e-01  5.1271195512100443e-01  4.1090606012402292e-01  3.2907730788626260e-01  2.6348063279585288e-01  2.1082093210794237e-01  1.6876833169792160e-01  1.3540471470581802e-01  1.0833074443370098e-01  8.6704597417622459e-02  5.4759759570914154e-02  4.3225360783529593e-02  3.4031198260157755e-02  2.6867430279427600e-02  2.1187023423629030e-02  1.6687803747948159e-02  1.3135687078114501e-02  1.0316944506738149e-02  8.1201947783974722e-03  6.3759970816408629e-03  5.0058781438151430e-03  3.9311935822984694e-03  3.0832265940649670e-03  2.4167366394290415e-03  1.8923113689235619e-03  1.4805657065025981e-03  1.1588658904032635e-03  9.0639597039835526e-04  7.0836323651641089e-04  5.5299463572989441e-04  4.3164612302507634e-04  3.3688610481731775e-04  2.6262566357644862e-04  2.0441556845845579e-04  1.5930963282370119e-04  1.2389094094071535e-04  9.6426060205207574e-05  7.5003516592172766e-05  5.8271320080041253e-05  4.5242743490783518e-05  3.5089966589729591e-05  2.7276951651057278e-05  2.1161350313123842e-05  1.6442856749149252e-05  1.2787875306952924e-05  1.0011659993277299e-05  7.8731025674523941e-06  6.2574468762535252e-06  5.0545440692744752e-06  4.1884432134148348e-06  3.6240792324351537e-06  3.2791469310956518e-06  6.9286466582999348e-02  6.9324826540808460e-02  6.9316148334379282e-02  6.9284485864689355e-02  6.9252643345808260e-02  6.9365769330935426e-02  6.9310533864112178e-02  6.9214917259630998e-02  6.9263229171941193e-02  6.9376309739986694e-02  6.9179084068924382e-02  6.9256416169487786e-02  6.9348362835715743e-02  6.9338856115293307e-02  6.9327102128845450e-02  6.9232066357316449e-02  6.9212740812831255e-02  6.9149639702135668e-02  6.9277948812854387e-02  6.9279737091748853e-02  6.9156817951219404e-02  6.9191218648026118e-02  6.9297692747704323e-02  6.9312796116279343e-02  6.9227644874888319e-02  6.9215634221722708e-02  6.9241098135444171e-02  6.9218981865155335e-02  6.9305326757587077e-02  6.9250017519256538e-02  6.9213314964182024e-02  6.9233734493499191e-02  6.9249385862267671e-02  6.9186983708173791e-02  6.9295852822288326e-02  6.9503713816740670e-02  6.9284172629196575e-02  6.9461408567031424e-02  6.9510321627043264e-02  6.9475323728142468e-02  6.9810475987988729e-02  6.9893733056837062e-02  6.9956996192262533e-02  7.0303444438142973e-02  7.0451576474832314e-02  7.0879848586351463e-02  7.1484271021257623e-02  7.2087336045037906e-02  7.2680118277917413e-02  7.3570596043234945e-02  7.4514590198050346e-02  7.5449871266623503e-02  7.6787021081854159e-02  7.7968879777241970e-02  7.9181937955545539e-02  8.0468007020752186e-02  8.1522294407239029e-02  8.2386692021606020e-02  8.3499480252922198e-02  8.4148827315369018e-02  8.4638821367851252e-02  8.5165373713340403e-02  8.5258832080612371e-02  8.5594789180559266e-02  8.5761091325961103e-02  8.5825574444016117e-02  8.5767355829941549e-02  8.5588480328073910e-02  8.5722874939709634e-02  8.5705319858821488e-02  8.5606249628028777e-02  8.5521913711263553e-02  8.5459630336156514e-02  8.5391436253246897e-02  8.5163258738211067e-02  8.5236099260511816e-02  8.5142454356045047e-02  8.5031114732823432e-02  8.5118175100932433e-02  8.5016519926928713e-02  8.4947140407412983e-02  8.5068093036506726e-02  8.5131836441895967e-02  8.5031772275196926e-02  8.5051627094639287e-02  8.5361183241920893e-02  8.5352361488196346e-02  8.5392376346492910e-02  8.5406557599589636e-02  8.5342304450736456e-02  8.5478143000138673e-02  8.5568589474209922e-02  8.5585247203909656e-02  8.5648300853111731e-02  8.5504187218381697e-02  8.5674805357778966e-02  8.5836878467054623e-02  8.5940596162522517e-02  8.5904021241234210e-02  8.5995743872950489e-02  8.6073329318175934e-02  8.6179745007519098e-02  8.6201124371129534e-02  8.6334311794150978e-02  8.6404780167933501e-02  8.6369965117089956e-02  8.6433007444201834e-02  8.6407222561430019e-02  8.6267792454970293e-02  8.6490745941707262e-02  8.6555004539220312e-02  6.9288633007836692e-02  6.9324540387203037e-02  6.9317425765921162e-02  6.9285573335404305e-02  6.9252985247792942e-02  6.9368685338973182e-02  6.9307753926002982e-02  6.9216319642573562e-02  6.9260153253385637e-02  6.9370426564140525e-02  6.9189131818833377e-02  6.9249226822720444e-02  6.9342002833581523e-02  6.9333399261450962e-02  6.9323659461617879e-02  6.9234713430330788e-02  6.9213303974285031e-02  6.9132691051407361e-02  6.9268522441977343e-02  6.9296077090404237e-02  6.9170673562626586e-02  6.9214973531943058e-02  6.9299641165973133e-02  6.9314323231963473e-02  6.9224634117823966e-02  6.9213665155393553e-02  6.9241348614505330e-02  6.9213750776164581e-02  6.9286320212067751e-02  6.9223241735315216e-02  6.9176378435865660e-02  6.9181114523454434e-02  6.9173879129530158e-02  6.9092493315458581e-02  6.9173385466294632e-02  6.9356122865294287e-02  6.9089055866898966e-02  6.9215991277127478e-02  6.9191753130349171e-02  6.9065703209912732e-02  6.9293749704649840e-02  6.9227781331164626e-02  6.9107672636067360e-02  6.9217002795925409e-02  6.9056933073587207e-02  6.9095703314194637e-02  6.9214436687122696e-02  6.9229951525273933e-02  6.9102270261377524e-02  6.9146187472783616e-02  6.9125721582156241e-02  6.8963875394155175e-02  6.9113151180505539e-02  6.9079177755362237e-02  6.9038554314412262e-02  6.9083248065232153e-02  6.9026005886767841e-02  6.8892314735341964e-02  6.9073085966501621e-02  6.9018696877449576e-02  6.8939946630567392e-02  6.9023703828479208e-02  6.8847021613623618e-02  6.8940944419618677e-02  6.8961574861214528e-02  6.8946859451980327e-02  6.8873776774269160e-02  6.8740349526034542e-02  6.8881654689767771e-02  6.8926612021686401e-02  6.8918357848906223e-02  6.8904572232736230e-02  6.8940883789464891e-02  6.8966435557950220e-02  6.8859879719767855e-02  6.8989811836034656e-02  6.8975797615437637e-02  6.8930357495898806e-02  6.9027100545501263e-02  6.8949501944490163e-02  6.8876689372355429e-02  6.8942690022632050e-02  6.8950035197716864e-02  6.8853771311057577e-02  6.8795509874543817e-02  6.8985850776207475e-02  6.8934551183582535e-02  6.8932871476315771e-02  6.8920692571482270e-02  6.8847372570312093e-02  6.8931124188524692e-02  6.8975055510220123e-02  6.8949737009626352e-02  6.8952227690903201e-02  6.8782903220366912e-02  6.8871296773882276e-02  6.8949177913835119e-02  6.8980837825019403e-02  6.8889529113426370e-02  6.8902594019824626e-02  6.8896691546343675e-02  6.8920574966820747e-02  6.8886667263953455e-02  6.8947536961910597e-02  6.8968879923600165e-02  6.8920906919686303e-02  6.8945870980471599e-02  6.8912745440573894e-02  6.8779939139079288e-02  6.8966837555380828e-02  6.9028240193970997e-02  9.9433304588462101e-01  9.9854138305560147e-01  9.9478941855265079e-01  9.9630913486016381e-01  9.9716356793557670e-01  9.9620572413300412e-01  9.9647162670070100e-01  9.9695546887393982e-01  9.9618436014380163e-01  9.9654846354287141e-01  9.9528628828618593e-01  9.9789860483673998e-01  9.9576312555332025e-01  9.9697648197491129e-01  9.9661807006039993e-01  9.9723348841657511e-01  9.9670724475885719e-01  9.9665423069871806e-01  9.9725632792428742e-01  9.9694091538757790e-01  9.9703422807440012e-01  9.9729180758301672e-01  9.9700748359884206e-01  9.9729366957984644e-01  9.9736904550489613e-01  9.9582963137408187e-01  9.9893356960540547e-01  9.9628536841265813e-01  9.9728438916359308e-01  9.9660549516641950e-01  9.9641519149714186e-01  9.9647454907329824e-01  9.9666685610213390e-01  9.9729532600535331e-01  9.9623439166738836e-01  9.9891205720863052e-01  9.9584221525972616e-01  9.9601444315311849e-01  9.9875571408132746e-01  9.9553276719048567e-01  9.9636369669232749e-01  9.9623510340767696e-01  9.9717977829197157e-01  9.9669475160038912e-01  9.9644725164797088e-01  9.9693353106850391e-01  9.9604829300519104e-01  9.9644989762793179e-01  9.9674097688549734e-01  9.9627919320258806e-01  9.9709524446302855e-01  9.9630608800165366e-01  9.9675225312034610e-01  9.9550810233890674e-01  9.9741900845473686e-01  3.4517835266507029e-04  3.6422830585516972e-04  4.4492627284237229e-04  5.0902659672465514e-04  3.0287646363607022e-03  2.6284446143532963e-03  2.7666199191699989e-03  3.3537291187915410e-03  5.7235933548122442e-05  5.1848930653982639e-05  4.6001172840169405e-05  5.1516989867758961e-05  4.4822339396288248e-03  5.3103920128555227e-05  5.1278764374675691e-03  4.9601413198392839e-03  6.2139646694496960e-03  3.0089551519115272e-05  2.6265856170319601e-05  2.4764516005634013e-05  7.4413736727373279e