<?xml version="1.0"?>
<VTKFile type="UnstructuredGrid"  version="0.1"  >
<UnstructuredGrid>
<Piece  NumberOfPoints="15540" NumberOfCells="30546">
<Points>
<DataArray  type="Float64"  NumberOfComponents="3"  format="ascii">0 0 0  -0.5 -0.5 0  0.5 -0.5 0  0.5 0 0  0.5 0.5 0  -0.5 0.5 0  -0.5 0.0001 0  -0.5 -0.0001 0  0.5 0.1 0  0.5 -0.1 0  -0.5 -0.1 0  -0.5 0.1 0  -0.4900000000000277 -0.5 0  -0.4800000000000555 -0.5 0  -0.4700000000000832 -0.5 0  -0.4600000000001109 -0.5 0  -0.4500000000001387 -0.5 0  -0.4400000000001664 -0.5 0  -0.4300000000001942 -0.5 0  -0.4200000000002219 -0.5 0  -0.4100000000002497 -0.5 0  -0.4000000000002774 -0.5 0  -0.3900000000003052 -0.5 0  -0.3800000000003328 -0.5 0  -0.3700000000003606 -0.5 0  -0.3600000000003883 -0.5 0  -0.3500000000004161 -0.5 0  -0.3400000000004438 -0.5 0  -0.3300000000004716 -0.5 0  -0.3200000000004993 -0.5 0  -0.3100000000005271 -0.5 0  -0.3000000000005548 -0.5 0  -0.2900000000005825 -0.5 0  -0.2800000000006103 -0.5 0  -0.2700000000006381 -0.5 0  -0.2600000000006658 -0.5 0  -0.2500000000006935 -0.5 0  -0.2400000000007212 -0.5 0  -0.230000000000749 -0.5 0  -0.2200000000007767 -0.5 0  -0.2100000000008044 -0.5 0  -0.2000000000008322 -0.5 0  -0.19000000000086 -0.5 0  -0.1800000000008877 -0.5 0  -0.1700000000009154 -0.5 0  -0.1600000000009431 -0.5 0  -0.1500000000009709 -0.5 0  -0.1400000000009986 -0.5 0  -0.1300000000010264 -0.5 0  -0.1200000000010541 -0.5 0  -0.1100000000010818 -0.5 0  -0.1000000000011096 -0.5 0  -0.09000000000113734 -0.5 0  -0.08000000000116503 -0.5 0  -0.07000000000119283 -0.5 0  -0.06000000000122058 -0.5 0  -0.05000000000124827 -0.5 0  -0.04000000000127607 -0.5 0  -0.03000000000130376 -0.5 0  -0.02000000000133151 -0.5 0  -0.01000000000135925 -0.5 0  -1.376121439022882e-12 -0.5 0  0.009999999998640763 -0.5 0  0.01999999999866864 -0.5 0  0.02999999999869629 -0.5 0  0.03999999999872406 -0.5 0  0.04999999999875182 -0.5 0  0.05999999999877947 -0.5 0  0.06999999999880724 -0.5 0  0.079999999998835 -0.5 0  0.08999999999886266 -0.5 0  0.09999999999889042 -0.5 0  0.1099999999989182 -0.5 0  0.1199999999989459 -0.5 0  0.1299999999989737 -0.5 0  0.1399999999990014 -0.5 0  0.1499999999990291 -0.5 0  0.1599999999990568 -0.5 0  0.1699999999990847 -0.5 0  0.1799999999991124 -0.5 0  0.1899999999991401 -0.5 0  0.1999999999991678 -0.5 0  0.2099999999991955 -0.5 0  0.2199999999992234 -0.5 0  0.2299999999992511 -0.5 0  0.2399999999992788 -0.5 0  0.2499999999993066 -0.5 0  0.2599999999993342 -0.5 0  0.269999999999362 -0.5 0  0.2799999999993897 -0.5 0  0.2899999999994175 -0.5 0  0.2999999999994452 -0.5 0  0.3099999999994729 -0.5 0  0.3199999999995007 -0.5 0  0.3299999999995284 -0.5 0  0.3399999999995562 -0.5 0  0.3499999999995839 -0.5 0  0.3599999999996116 -0.5 0  0.3699999999996393 -0.5 0  0.379999999999667 -0.5 0  0.3899999999996949 -0.5 0  0.3999999999997226 -0.5 0  0.4099999999997503 -0.5 0  0.419999999999778 -0.5 0  0.4299999999998058 -0.5 0  0.4399999999998336 -0.5 0  0.4499999999998613 -0.5 0  0.4599999999998891 -0.5 0  0.4699999999999167 -0.5 0  0.4799999999999445 -0.5 0  0.4899999999999722 -0.5 0  0.5 -0.4902110204681464 0  0.5 -0.4804459958734807 0  0.5 -0.4707048677450883 0  0.5 -0.4609875815766065 0  0.5 -0.4512940759251849 0  0.5 -0.4416242912883993 0  0.5 -0.4319781678689807 0  0.5 -0.4223556545383647 0  0.5 -0.4127566896324213 0  0.5 -0.4031812128200121 0  0.5 -0.3936291733057916 0  0.5 -0.3841005081172659 0  0.5 -0.3745951585781932 0  0.5 -0.3651130778999337 0  0.5 -0.3556541993788045 0  0.5 -0.3462184677228392 0  0.5 -0.3368058273705318 0  0.5 -0.3274162224888609 0  0.5 -0.3180495969712945 0  0.5 -0.3087058944357755 0  0.5 -0.299385058222682 0  0.5 -0.2900870313927414 0  0.5 -0.2808117567250807 0  0.5 -0.2715591844628491 0  0.5 -0.2623292564012653 0  0.5 -0.253121909553727 0  0.5 -0.2439371050851549 0  0.5 -0.2347747685524501 0  0.5 -0.2256348634421331 0  0.5 -0.2165173209784076 0  0.5 -0.207422087829958 0  0.5 -0.1983491207029381 0  0.5 -0.1892983550950482 0  0.5 -0.1802697378305253 0  0.5 -0.1712632154965152 0  0.5 -0.1622787344187354 0  0.5 -0.1533162406595534 0  0.5 -0.1443756800160514 0  0.5 -0.1354569980180493 0  0.5 -0.1265601399261414 0  0.5 -0.1176850622761093 0  0.5 -0.1088317009011999 0  0.5 -0.09166666666668973 0  0.5 -0.08333333333337943 0  0.5 -0.07500000000006915 0  0.5 -0.06666666666675886 0  0.5 -0.05833333333344858 0  0.5 -0.05000000000013693 0  0.5 -0.04166666666678191 0  0.5 -0.03333333333342643 0  0.5 -0.02500000000006916 0  0.5 -0.01666666666671188 0  0.5 -0.00833333333335548 0  0.5 0.008333333333318314 0  0.5 0.01666666666663358 0  0.5 0.02499999999994162 0  0.5 0.03333333333325101 0  0.5 0.04166666666655769 0  0.5 0.04999999999986843 0  0.5 0.05833333333322258 0  0.5 0.06666666666657715 0  0.5 0.07499999999993352 0  0.5 0.08333333333328992 0  0.5 0.09166666666664541 0  0.5 0.1088317009011616 0  0.5 0.1176850622760307 0  0.5 0.1265601399260203 0  0.5 0.1354569980178909 0  0.5 0.1443756800158549 0  0.5 0.153316240659315 0  0.5 0.1622787344184454 0  0.5 0.1712632154961752 0  0.5 0.1802697378301332 0  0.5 0.1892983550946039 0  0.5 0.1983491207024433 0  0.5 0.2074220878294123 0  0.5 0.216517320977811 0  0.5 0.2256348634414833 0  0.5 0.2347747685517479 0  0.5 0.2439371050844009 0  0.5 0.2531219095529224 0  0.5 0.2623292564004089 0  0.5 0.2715591844619371 0  0.5 0.2808117567241139 0  0.5 0.290087031391723 0  0.5 0.2993850582216101 0  0.5 0.3087058944347426 0  0.5 0.3180495969703129 0  0.5 0.3274162224879299 0  0.5 0.3368058273696494 0  0.5 0.3462184677220051 0  0.5 0.3556541993780186 0  0.5 0.3651130778991989 0  0.5 0.3745951585775107 0  0.5 0.3841005081166359 0  0.5 0.3936291733052134 0  0.5 0.4031812128194852 0  0.5 0.412756689631945 0  0.5 0.4223556545379392 0  0.5 0.431978167868607 0  0.5 0.4416242912880781 0  0.5 0.4512940759249164 0  0.5 0.4609875815763912 0  0.5 0.4707048677449264 0  0.5 0.4804459958733726 0  0.5 0.4902110204680924 0  0.4900000000000277 0.5 0  0.4800000000000555 0.5 0  0.4700000000000832 0.5 0  0.4600000000001109 0.5 0  0.4500000000001387 0.5 0  0.4400000000001664 0.5 0  0.4300000000001942 0.5 0  0.4200000000002219 0.5 0  0.4100000000002497 0.5 0  0.4000000000002774 0.5 0  0.3900000000003052 0.5 0  0.3800000000003328 0.5 0  0.3700000000003606 0.5 0  0.3600000000003883 0.5 0  0.3500000000004161 0.5 0  0.3400000000004438 0.5 0  0.3300000000004716 0.5 0  0.3200000000004993 0.5 0  0.3100000000005271 0.5 0  0.3000000000005548 0.5 0  0.2900000000005825 0.5 0  0.2800000000006103 0.5 0  0.2700000000006381 0.5 0  0.2600000000006658 0.5 0  0.2500000000006935 0.5 0  0.2400000000007212 0.5 0  0.230000000000749 0.5 0  0.2200000000007767 0.5 0  0.2100000000008044 0.5 0  0.2000000000008322 0.5 0  0.19000000000086 0.5 0  0.1800000000008877 0.5 0  0.1700000000009154 0.5 0  0.1600000000009431 0.5 0  0.1500000000009709 0.5 0  0.1400000000009986 0.5 0  0.1300000000010264 0.5 0  0.1200000000010541 0.5 0  0.1100000000010818 0.5 0  0.1000000000011096 0.5 0  0.09000000000113734 0.5 0  0.08000000000116503 0.5 0  0.07000000000119283 0.5 0  0.06000000000122058 0.5 0  0.05000000000124827 0.5 0  0.04000000000127607 0.5 0  0.03000000000130376 0.5 0  0.02000000000133151 0.5 0  0.01000000000135925 0.5 0  1.376121439022882e-12 0.5 0  -0.009999999998640763 0.5 0  -0.01999999999866864 0.5 0  -0.02999999999869629 0.5 0  -0.03999999999872406 0.5 0  -0.04999999999875182 0.5 0  -0.05999999999877947 0.5 0  -0.06999999999880724 0.5 0  -0.079999999998835 0.5 0  -0.08999999999886266 0.5 0  -0.09999999999889042 0.5 0  -0.1099999999989182 0.5 0  -0.1199999999989459 0.5 0  -0.1299999999989737 0.5 0  -0.1399999999990014 0.5 0  -0.1499999999990291 0.5 0  -0.1599999999990568 0.5 0  -0.1699999999990847 0.5 0  -0.1799999999991124 0.5 0  -0.1899999999991401 0.5 0  -0.1999999999991678 0.5 0  -0.2099999999991955 0.5 0  -0.2199999999992234 0.5 0  -0.2299999999992511 0.5 0  -0.2399999999992788 0.5 0  -0.2499999999993066 0.5 0  -0.2599999999993342 0.5 0  -0.269999999999362 0.5 0  -0.2799999999993897 0.5 0  -0.2899999999994175 0.5 0  -0.2999999999994452 0.5 0  -0.3099999999994729 0.5 0  -0.3199999999995007 0.5 0  -0.3299999999995284 0.5 0  -0.3399999999995562 0.5 0  -0.3499999999995839 0.5 0  -0.3599999999996116 0.5 0  -0.3699999999996393 0.5 0  -0.379999999999667 0.5 0  -0.3899999999996949 0.5 0  -0.3999999999997226 0.5 0  -0.4099999999997503 0.5 0  -0.419999999999778 0.5 0  -0.4299999999998058 0.5 0  -0.4399999999998336 0.5 0  -0.4499999999998613 0.5 0  -0.4599999999998891 0.5 0  -0.4699999999999167 0.5 0  -0.4799999999999445 0.5 0  -0.4899999999999722 0.5 0  -0.5 0.4902110204681464 0  -0.5 0.4804459958734807 0  -0.5 0.4707048677450883 0  -0.5 0.4609875815766065 0  -0.5 0.4512940759251849 0  -0.5 0.4416242912883993 0  -0.5 0.4319781678689807 0  -0.5 0.4223556545383647 0  -0.5 0.4127566896324213 0  -0.5 0.4031812128200121 0  -0.5 0.3936291733057916 0  -0.5 0.3841005081172659 0  -0.5 0.3745951585781932 0  -0.5 0.3651130778999337 0  -0.5 0.3556541993788045 0  -0.5 0.3462184677228392 0  -0.5 0.3368058273705318 0  -0.5 0.3274162224888609 0  -0.5 0.3180495969712945 0  -0.5 0.3087058944357755 0  -0.5 0.299385058222682 0  -0.5 0.2900870313927414 0  -0.5 0.2808117567250807 0  -0.5 0.2715591844628491 0  -0.5 0.2623292564012653 0  -0.5 0.253121909553727 0  -0.5 0.2439371050851549 0  -0.5 0.2347747685524501 0  -0.5 0.2256348634421331 0  -0.5 0.2165173209784076 0  -0.5 0.207422087829958 0  -0.5 0.1983491207029381 0  -0.5 0.1892983550950482 0  -0.5 0.1802697378305253 0  -0.5 0.1712632154965152 0  -0.5 0.1622787344187354 0  -0.5 0.1533162406595534 0  -0.5 0.1443756800160514 0  -0.5 0.1354569980180493 0  -0.5 0.1265601399261414 0  -0.5 0.1176850622761093 0  -0.5 0.1088317009011999 0  -0.5 0.09167500000001694 0  -0.5 0.08335000000003931 0  -0.5 0.07502500000006167 0  -0.5 0.06670000000008947 0  -0.5 0.05837500000011001 0  -0.5 0.0500500000001328 0  -0.5 0.0417250000001127 0  -0.5 0.03340000000008944 0  -0.5 0.02507500000006573 0  -0.5 0.01675000000004653 0  -0.5 0.008425000000027341 
[...]
<PointData  Vectors="f_20"> 
<DataArray  type="Float64"  Name="f_20"  NumberOfComponents="3" format="ascii">-5.0294996466440496e-06 5.1224961118020074e-05 0.0000000000000000e+00  0.0000000000000000e+00 0.0000000000000000e+00 0.0000000000000000e+00  0.0000000000000000e+00 0.0000000000000000e+00 0.0000000000000000e+00  -3.8743110356872083e-05 4.0055833032418696e-05 0.0000000000000000e+00  1.1303593328027764e-04 7.0000000000000001e-03 0.0000000000000000e+00  1.1756025451370500e-04 7.0000000000000001e-03 0.0000000000000000e+00  1.1524999974678253e-04 7.0008153975983029e-03 0.0000000000000000e+00  -1.0153091962902307e-06 -5.1320662664981860e-07 0.0000000000000000e+00  1.0986651433666752e-04 6.9895479306157117e-03 0.0000000000000000e+00  -6.1708312080226801e-06 1.0252116875313421e-05 0.0000000000000000e+00  -6.1713282987200863e-07 -5.0881417283016943e-07 0.0000000000000000e+00  1.1585899558408964e-04 7.0008122981824010e-03 0.0000000000000000e+00  0.0000000000000000e+00 0.0000000000000000e+00 0.0000000000000000e+00  0.0000000000000000e+00 0.0000000000000000e+00 0.0000000000000000e+00  0.0000000000000000e+00 0.0000000000000000e+00 0.0000000000000000e+00  0.0000000000000000e+00 0.0000000000000000e+00 0.0000000000000000e+00  0.0000000000000000e+00 0.0000000000000000e+00 0.0000000000000000e+00  0.0000000000000000e+00 0.0000000000000000e+00 0.0000000000000000e+00  0.0000000000000000e+00 0.0000000000000000e+00 0.0000000000000000e+00  0.0000000000000000e+00 0.0000000000000000e+00 0.0000000000000000e+00  0.0000000000000000e+00 0.0000000000000000e+00 0.0000000000000000e+00  0.0000000000000000e+00 0.0000000000000000e+00 0.0000000000000000e+00  0.0000000000000000e+00 0.0000000000000000e+00 0.0000000000000000e+00  0.0000000000000000e+00 0.0000000000000000e+00 0.0000000000000000e+00  0.0000000000000000e+00 0.0000000000000000e+00 0.0000000000000000e+00  0.0000000000000000e+00 0.0000000000000000e+00 0.0000000000000000e+00  0.0000000000000000e+00 0.0000000000000000e+00 0.0000000000000000e+00  0.0000000000000000e+00 0.0000000000000000e+00 0.0000000000000000e+00  0.0000000000000000e+00 0.0000000000000000e+00 0.0000000000000000e+00  0.0000000000000000e+00 0.0000000000000000e+00 0.0000000000000000e+00  0.0000000000000000e+00 0.0000000000000000e+00 0.0000000000000000e+00  0.0000000000000000e+00 0.0000000000000000e+00 0.0000000000000000e+00  0.0000000000000000e+00 0.0000000000000000e+00 0.0000000000000000e+00  0.0000000000000000e+00 0.0000000000000000e+00 0.0000000000000000e+00  0.0000000000000000e+00 0.0000000000000000e+00 0.0000000000000000e+00  0.0000000000000000e+00 0.0000000000000000e+00 0.0000000000000000e+00  0.0000000000000000e+00 0.0000000000000000e+00 0.0000000000000000e+00  0.0000000000000000e+00 0.0000000000000000e+00 0.0000000000000000e+00  0.0000000000000000e+00 0.0000000000000000e+00 0.0000000000000000e+00  0.0000000000000000e+00 0.0000000000000000e+00 0.0000000000000000e+00  0.0000000000000000e+00 0.0000000000000000e+00 0.0000000000000000e+00  0.0000000000000000e+00 0.0000000000000000e+00 0.0000000000000000e+00  0.0000000000000000e+00 0.0000000000000000e+00 0.0000000000000000e+00  0.0000000000000000e+00 0.0000000000000000e+00 0.0000000000000000e+00  0.0000000000000000e+00 0.0000000000000000e+00 0.0000000000000000e+00  0.0000000000000000e+00 0.0000000000000000e+00 0.0000000000000000e+00  0.0000000000000000e+00 0.0000000000000000e+00 0.0000000000000000e+00  0.0000000000000000e+00 0.0000000000000000e+00 0.0000000000000000e+00  0.0000000000000000e+00 0.0000000000000000e+00 0.0000000000000000e+00  0.0000000000000000e+00 0.0000000000000000e+00 0.0000000000000000e+00  0.0000000000000000e+00 0.0000000000000000e+00 0.0000000000000000e+00  0.0000000000000000e+00 0.0000000000000000e+00 0.0000000000000000e+00  0.0000000000000000e+00 0.0000000000000000e+00 0.0000000000000000e+00  0.0000000000000000e+00 0.0000000000000000e+00 0.0000000000000000e+00  0.0000000000000000e+00 0.0000000000000000e+00 0.0000000000000000e+00  0.0000000000000000e+00 0.0000000000000000e+00 0.0000000000000000e+00  0.0000000000000000e+00 0.0000000000000000e+00 0.0000000000000000e+00  0.0000000000000000e+00 0.0000000000000000e+00 0.0000000000000000e+00  0.0000000000000000e+00 0.0000000000000000e+00 0.0000000000000000e+00  0.0000000000000000e+00 0.0000000000000000e+00 0.0000000000000000e+00  0.0000000000000000e+00 0.0000000000000000e+00 0.0000000000000000e+00  0.0000000000000000e+00 0.0000000000000000e+00 0.0000000000000000e+00  0.0000000000000000e+00 0.0000000000000000e+00 0.0000000000000000e+00  0.0000000000000000e+00 0.0000000000000000e+00 0.0000000000000000e+00  0.0000000000000000e+00 0.0000000000000000e+00 0.0000000000000000e+00  0.0000000000000000e+00 0.0000000000000000e+00 0.0000000000000000e+00  0.0000000000000000e+00 0.0000000000000000e+00 0.0000000000000000e+00  0.0000000000000000e+00 0.0000000000000000e+00 0.0000000000000000e+00  0.0000000000000000e+00 0.0000000000000000e+00 0.0000000000000000e+00  0.0000000000000000e+00 0.0000000000000000e+00 0.0000000000000000e+00  0.0000000000000000e+00 0.0000000000000000e+00 0.0000000000000000e+00  0.0000000000000000e+00 0.0000000000000000e+00 0.0000000000000000e+00  0.0000000000000000e+00 0.0000000000000000e+00 0.0000000000000000e+00  0.0000000000000000e+00 0.0000000000000000e+00 0.0000000000000000e+00  0.0000000000000000e+00 0.0000000000000000e+00 0.0000000000000000e+00  0.0000000000000000e+00 0.0000000000000000e+00 0.0000000000000000e+00  0.0000000000000000e+00 0.0000000000000000e+00 0.0000000000000000e+00  0.0000000000000000e+00 0.0000000000000000e+00 0.0000000000000000e+00  0.0000000000000000e+00 0.0000000000000000e+00 0.0000000000000000e+00  0.0000000000000000e+00 0.0000000000000000e+00 0.0000000000000000e+00  0.0000000000000000e+00 0.0000000000000000e+00 0.0000000000000000e+00  0.0000000000000000e+00 0.0000000000000000e+00 0.0000000000000000e+00  0.0000000000000000e+00 0.0000000000000000e+00 0.0000000000000000e+00  0.0000000000000000e+00 0.0000000000000000e+00 0.0000000000000000e+00  0.0000000000000000e+00 0.0000000000000000e+00 0.0000000000000000e+00  0.0000000000000000e+00 0.0000000000000000e+00 0.0000000000000000e+00  0.0000000000000000e+00 0.0000000000000000e+00 0.0000000000000000e+00  0.0000000000000000e+00 0.0000000000000000e+00 0.0000000000000000e+00  0.0000000000000000e+00 0.0000000000000000e+00 0.0000000000000000e+00  0.0000000000000000e+00 0.0000000000000000e+00 0.0000000000000000e+00  0.0000000000000000e+00 0.0000000000000000e+00 0.0000000000000000e+00  0.0000000000000000e+00 0.0000000000000000e+00 0.0000000000000000e+00  0.0000000000000000e+00 0.0000000000000000e+00 0.0000000000000000e+00  0.0000000000000000e+00 0.0000000000000000e+00 0.0000000000000000e+00  0.0000000000000000e+00 0.0000000000000000e+00 0.0000000000000000e+00  0.0000000000000000e+00 0.0000000000000000e+00 0.0000000000000000e+00  0.0000000000000000e+00 0.0000000000000000e+00 0.0000000000000000e+00  0.0000000000000000e+00 0.0000000000000000e+00 0.0000000000000000e+00  0.0000000000000000e+00 0.0000000000000000e+00 0.0000000000000000e+00  0.0000000000000000e+00 0.0000000000000000e+00 0.0000000000000000e+00  0.0000000000000000e+00 0.0000000000000000e+00 0.0000000000000000e+00  0.0000000000000000e+00 0.0000000000000000e+00 0.0000000000000000e+00  0.0000000000000000e+00 0.0000000000000000e+00 0.0000000000000000e+00  0.0000000000000000e+00 0.0000000000000000e+00 0.0000000000000000e+00  0.0000000000000000e+00 0.0000000000000000e+00 0.0000000000000000e+00  0.0000000000000000e+00 0.0000000000000000e+00 0.0000000000000000e+00  0.0000000000000000e+00 0.0000000000000000e+00 0.0000000000000000e+00  0.0000000000000000e+00 0.0000000000000000e+00 0.0000000000000000e+00  0.0000000000000000e+00 0.0000000000000000e+00 0.0000000000000000e+00  0.0000000000000000e+00 0.0000000000000000e+00 0.0000000000000000e+00  0.0000000000000000e+00 0.0000000000000000e+00 0.0000000000000000e+00  -4.5321291473408132e-07 4.7598064473899751e-07 0.0000000000000000e+00  -7.4418518623450007e-07 8.2401144520418871e-07 0.0000000000000000e+00  -9.8141053062376281e-07 1.1223149777508835e-06 0.0000000000000000e+00  -1.1883447513587891e-06 1.3949167944030080e-06 0.0000000000000000e+00  -1.3734123037857030e-06 1.6499796874321145e-06 0.0000000000000000e+00  -1.5425575092288964e-06 1.8940415370719972e-06 0.0000000000000000e+00  -1.7007093270708832e-06 2.1299943602178719e-06 0.0000000000000000e+00  -1.8462092737453319e-06 2.3609847335441140e-06 0.0000000000000000e+00  -1.9833071187249161e-06 2.5879711420435627e-06 0.0000000000000000e+00  -2.1147184344942590e-06 2.8109474207370865e-06 0.0000000000000000e+00  -2.2396757771902373e-06 3.0320852879866052e-06 0.0000000000000000e+00  -2.3601681785379437e-06 3.2504800662543589e-06 0.0000000000000000e+00  -2.4760900332644996e-06 3.4680781561931263e-06 0.0000000000000000e+00  -2.5892130128213021e-06 3.6834978741228165e-06 0.0000000000000000e+00  -2.6994479200399487e-06 3.8984234149161731e-06 0.0000000000000000e+00  -2.8077968396736611e-06 4.1122016546254555e-06 0.0000000000000000e+00  -2.9139290283135780e-06 4.3252774895477769e-06 0.0000000000000000e+00  -3.0187873738886422e-06 4.5377232555503520e-06 0.0000000000000000e+00  -3.1226268711226675e-06 4.7499227545376950e-06 0.0000000000000000e+00  -3.2256295943070042e-06 4.9617648017338162e-06 0.0000000000000000e+00  -3.3281908138692508e-06 5.1735194199105900e-06 0.0000000000000000e+00  -3.4305726495784134e-06 5.3852146870460008e-06 0.0000000000000000e+00  -3.5330719943295923e-06 5.5970259963237510e-06 0.0000000000000000e+00  -3.6359534676345262e-06 5.8089701218759033e-06 0.0000000000000000e+00  -3.7394353581108879e-06 6.0213307342402306e-06 0.0000000000000000e+00  -3.8438623378988847e-06 6.2342697311198570e-06 0.0000000000000000e+00  -3.9494531423837370e-06 6.4481683967389148e-06 0.0000000000000000e+00  -4.0557318376343897e-06 6.6621817523627345e-06 0.0000000000000000e+00  -4.1643321970246655e-06 6.8776020649595307e-06 0.0000000000000000e+00  -4.2750674120281265e-06 7.0943399157337135e-06 0.0000000000000000e+00  -4.3881746444606882e-06 7.3121094436782738e-06 0.0000000000000000e+00  -4.5036511854307586e-06 7.5321141360634342e-06 0.0000000000000000e+00  -4.6229256561816260e-06 7.7542001887963097e-06 0.0000000000000000e+00  -4.7455235737331854e-06 7.9795255251837839e-06 0.0000000000000000e+00  -4.8720834065677379e-06 8.2067338270680325e-06 0.0000000000000000e+00  -5.0048740392172424e-06 8.4379570166276161e-06 0.0000000000000000e+00  -5.1431656189506130e-06 8.6733536687809965e-06 0.0000000000000000e+00  -5.2875566411091882e-06 8.9158269732177270e-06 0.0000000000000000e+00  -5.4414784002008755e-06 9.1627246615636504e-06 0.0000000000000000e+00  -5.6035520172954814e-06 9.4181406259111389e-06 0.0000000000000000e+00  -5.7786659758961627e-06 9.6826043516519948e-06 0.0000000000000000e+00  -5.9670814592507071e-06 9.9618653117279142e-06 0.0000000000000000e+00  -6.3874788704459189e-06 1.0548070232916421e-05 0.0000000000000000e+00  -6.6267150444903308e-06 1.0871164581463331e-05 0.0000000000000000e+00  -6.8979198595450943e-06 1.1216328661564814e-05 0.0000000000000000e+00  -7.2130421581874942e-06 1.1617959926569709e-05 0.0000000000000000e+00  -7.5713454398650875e-06 1.2057103619867390e-05 0.0000000000000000e+00  -8.0275752774212532e-06 1.2574181089483881e-05 0.0000000000000000e+00  -8.5953811224449369e-06 1.3268889494243297e-05 0.0000000000000000e+00  -9.3891514790441208e-06 1.4159100640184650e-05 0.0000000000000000e+00  -1.0554401462253089e-05 1.5372227545631156e-05 0.0000000000000000e+00  -1.2536180518686867e-05 1.7489551407970213e-05 0.0000000000000000e+00  -1.7782354479428721e-05 2.2500040698310249e-05 0.0000000000000000e+00  5.1859442203988412e-05 6.9401143574176092e-03 0.0000000000000000e+00  9.7505270109193946e-05 6.9757511192957890e-03 0.0000000000000000e+00  1.0307238467396677e-04 6.9816882261494410e-03 0.0000000000000000e+00  1.0551625351607326e-04 6.9843534375971890e-03 0.0000000000000000e+00  1.0678865467479221e-04 6.9857708196820632e-03 0.0000000000000000e+00  1.0759994215562349e-04 6.9866776480256290e-03 0.0000000000000000e+00  1.0819214074101626e-04 6.9874098901929619e-03 0.0000000000000000e+00  1.0866031656574007e-04 6.9879713316309241e-03 0.0000000000000000e+00  1.0904117188895206e-04 6.9884393123824965e-03 0.0000000000000000e+00  1.0934821155615722e-04 6.9888391884805681e-03 0.0000000000000000e+00  1.0962629246594618e-04 6.9892131494294647e-03 0.0000000000000000e+00  1.1008723044747201e-04 6.9898708086011275e-03 0.0000000000000000e+00  1.1028735921398826e-04 6.9901795007374177e-03 0.0000000000000000e+00  1.1046942321424970e-04 6.9904690827314649e-03 0.0000000000000000e+00  1.1063421680619759e-04 6.9907470351371860e-03 0.0000000000000000e+00  1.1078779035908690e-04 6.9910145478904208e-03 0.0000000000000000e+00  1.1092887362988667e-04 6.9912769679955607e-03 0.0000000000000000e+00  1.1106126270900255e-04 6.9915308082087804e-03 0.0000000000000000e+00  1.1118610258197373e-04 6.9917798674323803e-03 0.0000000000000000e+00  1.1130197521205549e-04 6.9920242660348967e-03 0.0000000000000000e+00  1.1141219769752110e-04 6.9922669483083308e-03 0.0000000000000000e+00  1.1151696954721411e-04 6.9925059551370931e-03 0.0000000000000000e+00  1.1161592197732591e-04 6.9927428973024222e-03 0.0000000000000000e+00  1.1171053768095138e-04 6.9929773587371381e-03 0.0000000000000000e+00  1.1180078293734615e-04 6.9932112243951709e-03 0.0000000000000000e+00  1.1188688560569901e-04 6.9934439284225760e-03 0.0000000000000000e+00  1.1196801038903483e-04 6.9936749615814777e-03 0.0000000000000000e+00  1.1204683907170063e-04 6.9939067256984113e-03 0.0000000000000000e+00  1.1212201783477826e-04 6.9941375095154794e-03 0.0000000000000000e+00  1.1219371547558882e-04 6.9943678273466769e-03 0.0000000000000000e+00  1.1226223479563440e-04 6.9945977993411297e-03 0.0000000000000000e+00  1.1232764694260348e-04 6.9948280304840179e-03 0.0000000000000000e+00  1.1239031986309860e-04 6.9950584081757946e-03 0.0000000000000000e+00  1.1244959778303815e-04 6.9952889419327615e-03 0.0000000000000000e+00  1.1250633219395181e-04 6.9955201086777819e-03 0.0000000000000000e+00  1.1255944277077941e-04 6.9957507470343981e-03 0.0000000000000000e+00  1.1261045193926107e-04 6.9959826772200426e-03 0.0000000000000000e+00  1.1265855707583890e-04 6.9962147322018961e-03 0.0000000000000000e+00  1.1270332032829534e-04 6.9964470526331585e-03 0.0000000000000000e+00  1.1274563317533553e-04 6.9966795501419168e-03 0.0000000000000000e+00  1.1278516820288974e-04 6.9969133566111109e-03 0.0000000000000000e+00  1.1282177034943039e-04 6.9971467652803531e-03 0.0000000000000000e+00  1.1285561567062148e-04 6.9973814836386972e-03 0.0000000000000000e+00  1.1288649901302150e-04 6.9976164398096834e-03 0.0000000000000000e+00  1.1291448265949486e-04 6.9978525894476926e-03 0.0000000000000000e+00  1.1293976467425848e-04 6.9980886365305561e-03 0.0000000000000000e+00  1.1296209399414564e-04 6.9983252766492882e-03 0.0000000000000000e+00  1.1298136839116235e-04 6.9985628633714402e-03 0.0000000000000000e+00  1.1299786791387975e-04 6.9988007575077496e-03 0.0000000000000000e+00  1.1301134050363244e-04 6.9990394055850867e-03 0.0000000000000000e+00  1.1302209274367253e-04 6.9992787451245144e-03 0.0000000000000000e+00  1.1302889008108767e-04 6.9995186841892137e-03 0.0000000000000000e+00  1.1303390099360862e-04 6.9997590262561027e-03 0.0000000000000000e+00  1.1314017535863438e-04 6.9999999999999993e-03 0.0000000000000000e+00  1.1324381538719579e-04 7.0000000000000001e-03 0.0000000000000000e+00  1.1334590050388833e-04 7.0000000000000001e-03 0.0000000000000000e+00  1.1344673815238503e-04 7.0000000000000001e-03 0.0000000000000000e+00  1.1354662775167782e-04 7.0000000000000001e-03 0.0000000000000000e+00  1.1364442123221648e-04 6.9999999999999993e-03 0.0000000000000000e+00  1.1374142096777649e-04 7.0000000000000001e-03 0.0000000000000000e+00  1.1383730460764068e-04 7.0000000000000001e-03 0.0000000000000000e+00  1.1393220511315937e-04 7.0000000000000001e-03 0.0000000000000000e+00  1.1402510284626085e-04 7.0000000000000001e-03 0.0000000000000000e+00  1.1411746411924643e-04 7.0000000000000001e-03 0.0000000000000000e+00  1.1420864634332190e-04 7.0000000000000001e-03 0.0000000000000000e+00  1.1429872545216688e-04 7.0000000000000010e-03 0.0000000000000000e+00  1.1438756191469838e-04 7.0000000000000001e-03 0.0000000000000000e+00  1.1447534289687107e-04 7.0000000000000010e-03 0.0000000000000000e+00  1.1456252872614974e-04 7.0000000000000010e-03 0.0000000000000000e+00  1.1464882675279851e-04 7.0000000000000001e-03 0.0000000000000000e+00  1.1473406689702231e-04 7.0000000000000001e-03 0.0000000000000000e+00  1.1481838985199324e-04 6.9999999999999993e-03 0.0000000000000000e+00  1.1490199819617328e-04 6.9999999999999993e-03 0.0000000000000000e+00  1.1498478499815537e-04 7.0000000000000010e-03 0.0000000000000000e+00  1.1506683820321986e-04 7.0000000000000001e-03 0.0000000000000000e+00  1.1514816989670301e-04 7.0000000000000001e-03 0.0000000000000000e+00  1.1522870276644890e-04 7.0000000000000001e-03 0.0000000000000000e+00  1.1530869857786419e-04 7.0000000000000001e-03 0.0000000000000000e+00  1.1538792532113338e-04 7.0000000000000001e-03 0.0000000000000000e+00  1.1546637122969975e-04 7.0000000000000001e-03 0.0000000000000000e+00  1.1554425679723173e-04 7.0000000000000001e-03 0.0000000000000000e+00  1.1562110556846534e-04 7.0000000000000001e-03 0.0000000000000000e+00  1.1569725187695182e-04 7.0000000000000001e-03 0.0000000000000000e+00  1.1577271086824646e-04 7.0000000000000001e-03 0.0000000000000000e+00  1.1584721694851380e-04 7.0000000000000001e-03 0.0000000000000000e+00  1.1592094520438748e-04 7.0000000000000010e-03 0.0000000000000000e+00  1.1599408295272767e-04 7.0000000000000001e-03 0.0000000000000000e+00  1.1606566551974704e-04 7.0000000000000001e-03 0.0000000000000000e+00  1.1613654956667374e-04 7.0000000000000001e-03 0.0000000000000000e+00  1.1620636756841800e-04 7.0000000000000001e-03 0.0000000000000000e+00  1.1627502777668358e-04 7.0000000000000001e-03 0.0000000000000000e+00  1.1634285616851993e-04 6.9999999999999993e-03 0.0000000000000000e+00  1.1640907382362609e-04 6.9999999999999993e-03 0.0000000000000000e+00  1.1647390036306921e-04 7.0000000000000001e-03 0.0000000000000000e+00  1.1653722324711037e-04 7.0000000000000010e-03 0.0000000000000000e+00  1.1659934978575375e-04 7.0000000000000001e-03 0.0000000000000000e+00  1.1666019075109112e-04 6.9999999999999993e-03 0.0000000000000000e+00  1.1671896406969268e-04 7.0000000000000001e-03 0.0000000000000000e+00  1.1677654161935994e-04 7.0000000000000001e-03 0.0000000000000000e+00  1.1683251102786920e-04 7.0000000000000001e-03 0.0000000000000000e+00  1.1688596721250315e-04 7.0000000000000001e-03 0.0000000000000000e+00  1.1693801055618131e-04 7.0000000000000010e-03 0.0000000000000000e+00  1.1698858235529224e-04 7.0000000000000001e-03 0.0000000000000000e+00  1.1703713337766232e-04 7.0000000000000010e-03 0.0000000000000000e+00  1.1708343813438621e-04 6.9999999999999993e-03 0.0000000000000000e+00  1.1712786256026097e-04 7.0000000000000001e-03 0.0000000000000000e+00  1.1717066548173298e-04 7.0000000000000001e-03 0.0000000000000000e+00  1.1721117791259607e-04 7.0000000000000010e-03 0.0000000000000000e+00  1.1724968528148893e-04 7.0000000000000010e-03 0.0000000000000000e+00  1.1728637483265846e-04 6.9999999999999993e-03 0.0000000000000000e+00  1.1732131428164407e-04 7.0000000000000001e-03 0.0000000000000000e+00  1.1735368331080110e-04 7.0000000000000001e-03 0.0000000000000000e+00  1.1738454318994367e-04 7.0000000000000010e-03 0.0000000000000000e+00  1.1741335142678735e-04 7.0000000000000001e-03 0.0000000000000000e+00  1.1744026554141931e-04 7.0000000000000001e-03 0.0000000000000000e+00  1.1746511404279393e-04 7.0000000000000010e-03 0.0000000000000000e+00  1.1748854496924905e-04 7.0000000000000001e-03 0.0000000000000000e+00  1.1751032964501264e-04 7.0000000000000001e-03 0.0000000000000000e+00  1.1753031936090156e-04 7.0000000000000001e-03 0.0000000000000000e+00  1.1754849116769866e-04