<?xml version="1.0"?>
<VTKFile type="UnstructuredGrid"  version="0.1"  >
<UnstructuredGrid>
<Piece  NumberOfPoints="15540" NumberOfCells="30546">
<Points>
<DataArray  type="Float64"  NumberOfComponents="3"  format="ascii">0 0 0  -0.5 -0.5 0  0.5 -0.5 0  0.5 0 0  0.5 0.5 0  -0.5 0.5 0  -0.5 0.0001 0  -0.5 -0.0001 0  0.5 0.1 0  0.5 -0.1 0  -0.5 -0.1 0  -0.5 0.1 0  -0.4900000000000277 -0.5 0  -0.4800000000000555 -0.5 0  -0.4700000000000832 -0.5 0  -0.4600000000001109 -0.5 0  -0.4500000000001387 -0.5 0  -0.4400000000001664 -0.5 0  -0.4300000000001942 -0.5 0  -0.4200000000002219 -0.5 0  -0.4100000000002497 -0.5 0  -0.4000000000002774 -0.5 0  -0.3900000000003052 -0.5 0  -0.3800000000003328 -0.5 0  -0.3700000000003606 -0.5 0  -0.3600000000003883 -0.5 0  -0.3500000000004161 -0.5 0  -0.3400000000004438 -0.5 0  -0.3300000000004716 -0.5 0  -0.3200000000004993 -0.5 0  -0.3100000000005271 -0.5 0  -0.3000000000005548 -0.5 0  -0.2900000000005825 -0.5 0  -0.2800000000006103 -0.5 0  -0.2700000000006381 -0.5 0  -0.2600000000006658 -0.5 0  -0.2500000000006935 -0.5 0  -0.2400000000007212 -0.5 0  -0.230000000000749 -0.5 0  -0.2200000000007767 -0.5 0  -0.2100000000008044 -0.5 0  -0.2000000000008322 -0.5 0  -0.19000000000086 -0.5 0  -0.1800000000008877 -0.5 0  -0.1700000000009154 -0.5 0  -0.1600000000009431 -0.5 0  -0.1500000000009709 -0.5 0  -0.1400000000009986 -0.5 0  -0.1300000000010264 -0.5 0  -0.1200000000010541 -0.5 0  -0.1100000000010818 -0.5 0  -0.1000000000011096 -0.5 0  -0.09000000000113734 -0.5 0  -0.08000000000116503 -0.5 0  -0.07000000000119283 -0.5 0  -0.06000000000122058 -0.5 0  -0.05000000000124827 -0.5 0  -0.04000000000127607 -0.5 0  -0.03000000000130376 -0.5 0  -0.02000000000133151 -0.5 0  -0.01000000000135925 -0.5 0  -1.376121439022882e-12 -0.5 0  0.009999999998640763 -0.5 0  0.01999999999866864 -0.5 0  0.02999999999869629 -0.5 0  0.03999999999872406 -0.5 0  0.04999999999875182 -0.5 0  0.05999999999877947 -0.5 0  0.06999999999880724 -0.5 0  0.079999999998835 -0.5 0  0.08999999999886266 -0.5 0  0.09999999999889042 -0.5 0  0.1099999999989182 -0.5 0  0.1199999999989459 -0.5 0  0.1299999999989737 -0.5 0  0.1399999999990014 -0.5 0  0.1499999999990291 -0.5 0  0.1599999999990568 -0.5 0  0.1699999999990847 -0.5 0  0.1799999999991124 -0.5 0  0.1899999999991401 -0.5 0  0.1999999999991678 -0.5 0  0.2099999999991955 -0.5 0  0.2199999999992234 -0.5 0  0.2299999999992511 -0.5 0  0.2399999999992788 -0.5 0  0.2499999999993066 -0.5 0  0.2599999999993342 -0.5 0  0.269999999999362 -0.5 0  0.2799999999993897 -0.5 0  0.2899999999994175 -0.5 0  0.2999999999994452 -0.5 0  0.3099999999994729 -0.5 0  0.3199999999995007 -0.5 0  0.3299999999995284 -0.5 0  0.3399999999995562 -0.5 0  0.3499999999995839 -0.5 0  0.3599999999996116 -0.5 0  0.3699999999996393 -0.5 0  0.379999999999667 -0.5 0  0.3899999999996949 -0.5 0  0.3999999999997226 -0.5 0  0.4099999999997503 -0.5 0  0.419999999999778 -0.5 0  0.4299999999998058 -0.5 0  0.4399999999998336 -0.5 0  0.4499999999998613 -0.5 0  0.4599999999998891 -0.5 0  0.4699999999999167 -0.5 0  0.4799999999999445 -0.5 0  0.4899999999999722 -0.5 0  0.5 -0.4902110204681464 0  0.5 -0.4804459958734807 0  0.5 -0.4707048677450883 0  0.5 -0.4609875815766065 0  0.5 -0.4512940759251849 0  0.5 -0.4416242912883993 0  0.5 -0.4319781678689807 0  0.5 -0.4223556545383647 0  0.5 -0.4127566896324213 0  0.5 -0.4031812128200121 0  0.5 -0.3936291733057916 0  0.5 -0.3841005081172659 0  0.5 -0.3745951585781932 0  0.5 -0.3651130778999337 0  0.5 -0.3556541993788045 0  0.5 -0.3462184677228392 0  0.5 -0.3368058273705318 0  0.5 -0.3274162224888609 0  0.5 -0.3180495969712945 0  0.5 -0.3087058944357755 0  0.5 -0.299385058222682 0  0.5 -0.2900870313927414 0  0.5 -0.2808117567250807 0  0.5 -0.2715591844628491 0  0.5 -0.2623292564012653 0  0.5 -0.253121909553727 0  0.5 -0.2439371050851549 0  0.5 -0.2347747685524501 0  0.5 -0.2256348634421331 0  0.5 -0.2165173209784076 0  0.5 -0.207422087829958 0  0.5 -0.1983491207029381 0  0.5 -0.1892983550950482 0  0.5 -0.1802697378305253 0  0.5 -0.1712632154965152 0  0.5 -0.1622787344187354 0  0.5 -0.1533162406595534 0  0.5 -0.1443756800160514 0  0.5 -0.1354569980180493 0  0.5 -0.1265601399261414 0  0.5 -0.1176850622761093 0  0.5 -0.1088317009011999 0  0.5 -0.09166666666668973 0  0.5 -0.08333333333337943 0  0.5 -0.07500000000006915 0  0.5 -0.06666666666675886 0  0.5 -0.05833333333344858 0  0.5 -0.05000000000013693 0  0.5 -0.04166666666678191 0  0.5 -0.03333333333342643 0  0.5 -0.02500000000006916 0  0.5 -0.01666666666671188 0  0.5 -0.00833333333335548 0  0.5 0.008333333333318314 0  0.5 0.01666666666663358 0  0.5 0.02499999999994162 0  0.5 0.03333333333325101 0  0.5 0.04166666666655769 0  0.5 0.04999999999986843 0  0.5 0.05833333333322258 0  0.5 0.06666666666657715 0  0.5 0.07499999999993352 0  0.5 0.08333333333328992 0  0.5 0.09166666666664541 0  0.5 0.1088317009011616 0  0.5 0.1176850622760307 0  0.5 0.1265601399260203 0  0.5 0.1354569980178909 0  0.5 0.1443756800158549 0  0.5 0.153316240659315 0  0.5 0.1622787344184454 0  0.5 0.1712632154961752 0  0.5 0.1802697378301332 0  0.5 0.1892983550946039 0  0.5 0.1983491207024433 0  0.5 0.2074220878294123 0  0.5 0.216517320977811 0  0.5 0.2256348634414833 0  0.5 0.2347747685517479 0  0.5 0.2439371050844009 0  0.5 0.2531219095529224 0  0.5 0.2623292564004089 0  0.5 0.2715591844619371 0  0.5 0.2808117567241139 0  0.5 0.290087031391723 0  0.5 0.2993850582216101 0  0.5 0.3087058944347426 0  0.5 0.3180495969703129 0  0.5 0.3274162224879299 0  0.5 0.3368058273696494 0  0.5 0.3462184677220051 0  0.5 0.3556541993780186 0  0.5 0.3651130778991989 0  0.5 0.3745951585775107 0  0.5 0.3841005081166359 0  0.5 0.3936291733052134 0  0.5 0.4031812128194852 0  0.5 0.412756689631945 0  0.5 0.4223556545379392 0  0.5 0.431978167868607 0  0.5 0.4416242912880781 0  0.5 0.4512940759249164 0  0.5 0.4609875815763912 0  0.5 0.4707048677449264 0  0.5 0.4804459958733726 0  0.5 0.4902110204680924 0  0.4900000000000277 0.5 0  0.4800000000000555 0.5 0  0.4700000000000832 0.5 0  0.4600000000001109 0.5 0  0.4500000000001387 0.5 0  0.4400000000001664 0.5 0  0.4300000000001942 0.5 0  0.4200000000002219 0.5 0  0.4100000000002497 0.5 0  0.4000000000002774 0.5 0  0.3900000000003052 0.5 0  0.3800000000003328 0.5 0  0.3700000000003606 0.5 0  0.3600000000003883 0.5 0  0.3500000000004161 0.5 0  0.3400000000004438 0.5 0  0.3300000000004716 0.5 0  0.3200000000004993 0.5 0  0.3100000000005271 0.5 0  0.3000000000005548 0.5 0  0.2900000000005825 0.5 0  0.2800000000006103 0.5 0  0.2700000000006381 0.5 0  0.2600000000006658 0.5 0  0.2500000000006935 0.5 0  0.2400000000007212 0.5 0  0.230000000000749 0.5 0  0.2200000000007767 0.5 0  0.2100000000008044 0.5 0  0.2000000000008322 0.5 0  0.19000000000086 0.5 0  0.1800000000008877 0.5 0  0.1700000000009154 0.5 0  0.1600000000009431 0.5 0  0.1500000000009709 0.5 0  0.1400000000009986 0.5 0  0.1300000000010264 0.5 0  0.1200000000010541 0.5 0  0.1100000000010818 0.5 0  0.1000000000011096 0.5 0  0.09000000000113734 0.5 0  0.08000000000116503 0.5 0  0.07000000000119283 0.5 0  0.06000000000122058 0.5 0  0.05000000000124827 0.5 0  0.04000000000127607 0.5 0  0.03000000000130376 0.5 0  0.02000000000133151 0.5 0  0.01000000000135925 0.5 0  1.376121439022882e-12 0.5 0  -0.009999999998640763 0.5 0  -0.01999999999866864 0.5 0  -0.02999999999869629 0.5 0  -0.03999999999872406 0.5 0  -0.04999999999875182 0.5 0  -0.05999999999877947 0.5 0  -0.06999999999880724 0.5 0  -0.079999999998835 0.5 0  -0.08999999999886266 0.5 0  -0.09999999999889042 0.5 0  -0.1099999999989182 0.5 0  -0.1199999999989459 0.5 0  -0.1299999999989737 0.5 0  -0.1399999999990014 0.5 0  -0.1499999999990291 0.5 0  -0.1599999999990568 0.5 0  -0.1699999999990847 0.5 0  -0.1799999999991124 0.5 0  -0.1899999999991401 0.5 0  -0.1999999999991678 0.5 0  -0.2099999999991955 0.5 0  -0.2199999999992234 0.5 0  -0.2299999999992511 0.5 0  -0.2399999999992788 0.5 0  -0.2499999999993066 0.5 0  -0.2599999999993342 0.5 0  -0.269999999999362 0.5 0  -0.2799999999993897 0.5 0  -0.2899999999994175 0.5 0  -0.2999999999994452 0.5 0  -0.3099999999994729 0.5 0  -0.3199999999995007 0.5 0  -0.3299999999995284 0.5 0  -0.3399999999995562 0.5 0  -0.3499999999995839 0.5 0  -0.3599999999996116 0.5 0  -0.3699999999996393 0.5 0  -0.379999999999667 0.5 0  -0.3899999999996949 0.5 0  -0.3999999999997226 0.5 0  -0.4099999999997503 0.5 0  -0.419999999999778 0.5 0  -0.4299999999998058 0.5 0  -0.4399999999998336 0.5 0  -0.4499999999998613 0.5 0  -0.4599999999998891 0.5 0  -0.4699999999999167 0.5 0  -0.4799999999999445 0.5 0  -0.4899999999999722 0.5 0  -0.5 0.4902110204681464 0  -0.5 0.4804459958734807 0  -0.5 0.4707048677450883 0  -0.5 0.4609875815766065 0  -0.5 0.4512940759251849 0  -0.5 0.4416242912883993 0  -0.5 0.4319781678689807 0  -0.5 0.4223556545383647 0  -0.5 0.4127566896324213 0  -0.5 0.4031812128200121 0  -0.5 0.3936291733057916 0  -0.5 0.3841005081172659 0  -0.5 0.3745951585781932 0  -0.5 0.3651130778999337 0  -0.5 0.3556541993788045 0  -0.5 0.3462184677228392 0  -0.5 0.3368058273705318 0  -0.5 0.3274162224888609 0  -0.5 0.3180495969712945 0  -0.5 0.3087058944357755 0  -0.5 0.299385058222682 0  -0.5 0.2900870313927414 0  -0.5 0.2808117567250807 0  -0.5 0.2715591844628491 0  -0.5 0.2623292564012653 0  -0.5 0.253121909553727 0  -0.5 0.2439371050851549 0  -0.5 0.2347747685524501 0  -0.5 0.2256348634421331 0  -0.5 0.2165173209784076 0  -0.5 0.207422087829958 0  -0.5 0.1983491207029381 0  -0.5 0.1892983550950482 0  -0.5 0.1802697378305253 0  -0.5 0.1712632154965152 0  -0.5 0.1622787344187354 0  -0.5 0.1533162406595534 0  -0.5 0.1443756800160514 0  -0.5 0.1354569980180493 0  -0.5 0.1265601399261414 0  -0.5 0.1176850622761093 0  -0.5 0.1088317009011999 0  -0.5 0.09167500000001694 0  -0.5 0.08335000000003931 0  -0.5 0.07502500000006167 0  -0.5 0.06670000000008947 0  -0.5 0.05837500000011001 0  -0.5 0.0500500000001328 0  -0.5 0.0417250000001127 0  -0.5 0.03340000000008944 0  -0.5 0.02507500000006573 0  -0.5 0.01675000000004653 0  -0.5 0.008425000000027341 
[...]
<PointData  Vectors="f_20"> 
<DataArray  type="Float64"  Name="f_20"  NumberOfComponents="3" format="ascii">-6.0044807674275132e-04 2.0223557880077185e-03 0.0000000000000000e+00  0.0000000000000000e+00 0.0000000000000000e+00 0.0000000000000000e+00  0.0000000000000000e+00 0.0000000000000000e+00 0.0000000000000000e+00  -1.1723193858310689e-03 2.1085227633286375e-03 0.0000000000000000e+00  -8.2598696879551605e-04 4.1999999999999997e-03 0.0000000000000000e+00  2.4278994663250669e-04 4.1999999999999997e-03 0.0000000000000000e+00  -2.9019166684233669e-04 4.3985043480673589e-03 0.0000000000000000e+00  -2.2780519608666086e-04 -1.2052484639940288e-04 0.0000000000000000e+00  -1.1460579204243537e-03 2.4306123761399000e-03 0.0000000000000000e+00  -1.1083723597664573e-03 1.7940848919570413e-03 0.0000000000000000e+00  -1.4166081349780113e-04 -1.1966078259770577e-04 0.0000000000000000e+00  -1.5237037993452515e-04 4.3979383422865625e-03 0.0000000000000000e+00  0.0000000000000000e+00 0.0000000000000000e+00 0.0000000000000000e+00  0.0000000000000000e+00 0.0000000000000000e+00 0.0000000000000000e+00  0.0000000000000000e+00 0.0000000000000000e+00 0.0000000000000000e+00  0.0000000000000000e+00 0.0000000000000000e+00 0.0000000000000000e+00  0.0000000000000000e+00 0.0000000000000000e+00 0.0000000000000000e+00  0.0000000000000000e+00 0.0000000000000000e+00 0.0000000000000000e+00  0.0000000000000000e+00 0.0000000000000000e+00 0.0000000000000000e+00  0.0000000000000000e+00 0.0000000000000000e+00 0.0000000000000000e+00  0.0000000000000000e+00 0.0000000000000000e+00 0.0000000000000000e+00  0.0000000000000000e+00 0.0000000000000000e+00 0.0000000000000000e+00  0.0000000000000000e+00 0.0000000000000000e+00 0.0000000000000000e+00  0.0000000000000000e+00 0.0000000000000000e+00 0.0000000000000000e+00  0.0000000000000000e+00 0.0000000000000000e+00 0.0000000000000000e+00  0.0000000000000000e+00 0.0000000000000000e+00 0.0000000000000000e+00  0.0000000000000000e+00 0.0000000000000000e+00 0.0000000000000000e+00  0.0000000000000000e+00 0.0000000000000000e+00 0.0000000000000000e+00  0.0000000000000000e+00 0.0000000000000000e+00 0.0000000000000000e+00  0.0000000000000000e+00 0.0000000000000000e+00 0.0000000000000000e+00  0.0000000000000000e+00 0.0000000000000000e+00 0.0000000000000000e+00  0.0000000000000000e+00 0.0000000000000000e+00 0.0000000000000000e+00  0.0000000000000000e+00 0.0000000000000000e+00 0.0000000000000000e+00  0.0000000000000000e+00 0.0000000000000000e+00 0.0000000000000000e+00  0.0000000000000000e+00 0.0000000000000000e+00 0.0000000000000000e+00  0.0000000000000000e+00 0.0000000000000000e+00 0.0000000000000000e+00  0.0000000000000000e+00 0.0000000000000000e+00 0.0000000000000000e+00  0.0000000000000000e+00 0.0000000000000000e+00 0.0000000000000000e+00  0.0000000000000000e+00 0.0000000000000000e+00 0.0000000000000000e+00  0.0000000000000000e+00 0.0000000000000000e+00 0.0000000000000000e+00  0.0000000000000000e+00 0.0000000000000000e+00 0.0000000000000000e+00  0.0000000000000000e+00 0.0000000000000000e+00 0.0000000000000000e+00  0.0000000000000000e+00 0.0000000000000000e+00 0.0000000000000000e+00  0.0000000000000000e+00 0.0000000000000000e+00 0.0000000000000000e+00  0.0000000000000000e+00 0.0000000000000000e+00 0.0000000000000000e+00  0.0000000000000000e+00 0.0000000000000000e+00 0.0000000000000000e+00  0.0000000000000000e+00 0.0000000000000000e+00 0.0000000000000000e+00  0.0000000000000000e+00 0.0000000000000000e+00 0.0000000000000000e+00  0.0000000000000000e+00 0.0000000000000000e+00 0.0000000000000000e+00  0.0000000000000000e+00 0.0000000000000000e+00 0.0000000000000000e+00  0.0000000000000000e+00 0.0000000000000000e+00 0.0000000000000000e+00  0.0000000000000000e+00 0.0000000000000000e+00 0.0000000000000000e+00  0.0000000000000000e+00 0.0000000000000000e+00 0.0000000000000000e+00  0.0000000000000000e+00 0.0000000000000000e+00 0.0000000000000000e+00  0.0000000000000000e+00 0.0000000000000000e+00 0.0000000000000000e+00  0.0000000000000000e+00 0.0000000000000000e+00 0.0000000000000000e+00  0.0000000000000000e+00 0.0000000000000000e+00 0.0000000000000000e+00  0.0000000000000000e+00 0.0000000000000000e+00 0.0000000000000000e+00  0.0000000000000000e+00 0.0000000000000000e+00 0.0000000000000000e+00  0.0000000000000000e+00 0.0000000000000000e+00 0.0000000000000000e+00  0.0000000000000000e+00 0.0000000000000000e+00 0.0000000000000000e+00  0.0000000000000000e+00 0.0000000000000000e+00 0.0000000000000000e+00  0.0000000000000000e+00 0.0000000000000000e+00 0.0000000000000000e+00  0.0000000000000000e+00 0.0000000000000000e+00 0.0000000000000000e+00  0.0000000000000000e+00 0.0000000000000000e+00 0.0000000000000000e+00  0.0000000000000000e+00 0.0000000000000000e+00 0.0000000000000000e+00  0.0000000000000000e+00 0.0000000000000000e+00 0.0000000000000000e+00  0.0000000000000000e+00 0.0000000000000000e+00 0.0000000000000000e+00  0.0000000000000000e+00 0.0000000000000000e+00 0.0000000000000000e+00  0.0000000000000000e+00 0.0000000000000000e+00 0.0000000000000000e+00  0.0000000000000000e+00 0.0000000000000000e+00 0.0000000000000000e+00  0.0000000000000000e+00 0.0000000000000000e+00 0.0000000000000000e+00  0.0000000000000000e+00 0.0000000000000000e+00 0.0000000000000000e+00  0.0000000000000000e+00 0.0000000000000000e+00 0.0000000000000000e+00  0.0000000000000000e+00 0.0000000000000000e+00 0.0000000000000000e+00  0.0000000000000000e+00 0.0000000000000000e+00 0.0000000000000000e+00  0.0000000000000000e+00 0.0000000000000000e+00 0.0000000000000000e+00  0.0000000000000000e+00 0.0000000000000000e+00 0.0000000000000000e+00  0.0000000000000000e+00 0.0000000000000000e+00 0.0000000000000000e+00  0.0000000000000000e+00 0.0000000000000000e+00 0.0000000000000000e+00  0.0000000000000000e+00 0.0000000000000000e+00 0.0000000000000000e+00  0.0000000000000000e+00 0.0000000000000000e+00 0.0000000000000000e+00  0.0000000000000000e+00 0.0000000000000000e+00 0.0000000000000000e+00  0.0000000000000000e+00 0.0000000000000000e+00 0.0000000000000000e+00  0.0000000000000000e+00 0.0000000000000000e+00 0.0000000000000000e+00  0.0000000000000000e+00 0.0000000000000000e+00 0.0000000000000000e+00  0.0000000000000000e+00 0.0000000000000000e+00 0.0000000000000000e+00  0.0000000000000000e+00 0.0000000000000000e+00 0.0000000000000000e+00  0.0000000000000000e+00 0.0000000000000000e+00 0.0000000000000000e+00  0.0000000000000000e+00 0.0000000000000000e+00 0.0000000000000000e+00  0.0000000000000000e+00 0.0000000000000000e+00 0.0000000000000000e+00  0.0000000000000000e+00 0.0000000000000000e+00 0.0000000000000000e+00  0.0000000000000000e+00 0.0000000000000000e+00 0.0000000000000000e+00  0.0000000000000000e+00 0.0000000000000000e+00 0.0000000000000000e+00  0.0000000000000000e+00 0.0000000000000000e+00 0.0000000000000000e+00  0.0000000000000000e+00 0.0000000000000000e+00 0.0000000000000000e+00  0.0000000000000000e+00 0.0000000000000000e+00 0.0000000000000000e+00  0.0000000000000000e+00 0.0000000000000000e+00 0.0000000000000000e+00  0.0000000000000000e+00 0.0000000000000000e+00 0.0000000000000000e+00  0.0000000000000000e+00 0.0000000000000000e+00 0.0000000000000000e+00  0.0000000000000000e+00 0.0000000000000000e+00 0.0000000000000000e+00  0.0000000000000000e+00 0.0000000000000000e+00 0.0000000000000000e+00  0.0000000000000000e+00 0.0000000000000000e+00 0.0000000000000000e+00  0.0000000000000000e+00 0.0000000000000000e+00 0.0000000000000000e+00  0.0000000000000000e+00 0.0000000000000000e+00 0.0000000000000000e+00  0.0000000000000000e+00 0.0000000000000000e+00 0.0000000000000000e+00  0.0000000000000000e+00 0.0000000000000000e+00 0.0000000000000000e+00  0.0000000000000000e+00 0.0000000000000000e+00 0.0000000000000000e+00  0.0000000000000000e+00 0.0000000000000000e+00 0.0000000000000000e+00  0.0000000000000000e+00 0.0000000000000000e+00 0.0000000000000000e+00  0.0000000000000000e+00 0.0000000000000000e+00 0.0000000000000000e+00  -1.0646102656185631e-04 1.1112062402103697e-04 0.0000000000000000e+00  -1.7447957277055357e-04 1.9097780769359416e-04 0.0000000000000000e+00  -2.2969164683641935e-04 2.5852301208764645e-04 0.0000000000000000e+00  -2.7788015974225896e-04 3.1891231926738290e-04 0.0000000000000000e+00  -3.2092803396567744e-04 3.7449125944640182e-04 0.0000000000000000e+00  -3.6031576870105165e-04 4.2683428009678953e-04 0.0000000000000000e+00  -3.9719903022410289e-04 4.7673022620326459e-04 0.0000000000000000e+00  -4.3113312566141784e-04 5.2487031355685668e-04 0.0000000000000000e+00  -4.6303553960159874e-04 5.7159949368528482e-04 0.0000000000000000e+00  -4.9360343940964637e-04 6.1696812205557069e-04 0.0000000000000000e+00  -5.2256893373465833e-04 6.6149892983918899e-04 0.0000000000000000e+00  -5.5039343456322084e-04 7.0492441990728646e-04 0.0000000000000000e+00  -5.7694083401653982e-04 7.4782885831971182e-04 0.0000000000000000e+00  -6.0272125494225943e-04 7.8976108054090461e-04 0.0000000000000000e+00  -6.2757654042116249e-04 8.3127232816329860e-04 0.0000000000000000e+00  -6.5187750751579635e-04 8.7207945628985670e-04 0.0000000000000000e+00  -6.7526913119668648e-04 9.1232236568585597e-04 0.0000000000000000e+00  -6.9807884372692349e-04 9.5194998355439516e-04 0.0000000000000000e+00  -7.2043422297582698e-04 9.9123745227378424e-04 0.0000000000000000e+00  -7.4212239457506718e-04 1.0298813159747447e-03 0.0000000000000000e+00  -7.6330952824787772e-04 1.0680879019562576e-03 0.0000000000000000e+00  -7.8401716112372051e-04 1.1058486815949137e-03 0.0000000000000000e+00  -8.0426899994685277e-04 1.1431188863276214e-03 0.0000000000000000e+00  -8.2405981292787045e-04 1.1799429107790698e-03 0.0000000000000000e+00  -8.4340497232732409e-04 1.2162554373322599e-03 0.0000000000000000e+00  -8.6230064393524170e-04 1.2520917102375707e-03 0.0000000000000000e+00  -8.8077319726226431e-04 1.2873869986669718e-03 0.0000000000000000e+00  -8.9892091173140109e-04 1.3223957014005970e-03 0.0000000000000000e+00  -9.1646734710106731e-04 1.3568710505912395e-03 0.0000000000000000e+00  -9.3354946699908089e-04 1.3908796091561045e-03 0.0000000000000000e+00  -9.5018417558997645e-04 1.4244824502450688e-03 0.0000000000000000e+00  -9.6639649730763334e-04 1.4575713798188161e-03 0.0000000000000000e+00  -9.8204500453061196e-04 1.4902212091141701e-03 0.0000000000000000e+00  -9.9725418204794892e-04 1.5223619471269496e-03 0.0000000000000000e+00  -1.0119411058406040e-03 1.5541863684536313e-03 0.0000000000000000e+00  -1.0260066117709814e-03 1.5855558306784832e-03 0.0000000000000000e+00  -1.0395469613063144e-03 1.6165179220782901e-03 0.0000000000000000e+00  -1.0525749038387572e-03 1.6469554567400135e-03 0.0000000000000000e+00  -1.0649160690584165e-03 1.6771223682569344e-03 0.0000000000000000e+00  -1.0767471417734585e-03 1.7068693011103176e-03 0.0000000000000000e+00  -1.0878956892748160e-03 1.7363234523071701e-03 0.0000000000000000e+00  -1.0984494957727410e-03 1.7653100487316198e-03 0.0000000000000000e+00  -1.1170531893226407e-03 1.8209680819983615e-03 0.0000000000000000e+00  -1.1252090177264579e-03 1.8475878283077979e-03 0.0000000000000000e+00  -1.1327358783384596e-03 1.8741635112689663e-03 0.0000000000000000e+00  -1.1396813895118787e-03 1.9004463556574890e-03 0.0000000000000000e+00  -1.1460407042357299e-03 1.9267475801810396e-03 0.0000000000000000e+00  -1.1516829193471939e-03 1.9529641263500055e-03 0.0000000000000000e+00  -1.1567601452341443e-03 1.9789074715747370e-03 0.0000000000000000e+00  -1.1611760113811301e-03 2.0048625677112426e-03 0.0000000000000000e+00  -1.1649563209287924e-03 2.0308104492223204e-03 0.0000000000000000e+00  -1.1679780367396745e-03 2.0567775527696661e-03 0.0000000000000000e+00  -1.1704755483894224e-03 2.0826013544446458e-03 0.0000000000000000e+00  -1.1734257823131674e-03 2.1344936289379910e-03 0.0000000000000000e+00  -1.1739233674009229e-03 2.1605004192054036e-03 0.0000000000000000e+00  -1.1738096440665007e-03 2.1867168866085409e-03 0.0000000000000000e+00  -1.1730561592514877e-03 2.2129176238363957e-03 0.0000000000000000e+00  -1.1717042644109746e-03 2.2394027861802174e-03 0.0000000000000000e+00  -1.1697242308376136e-03 2.2660894996212274e-03 0.0000000000000000e+00  -1.1671082870173153e-03 2.2928246206207932e-03 0.0000000000000000e+00  -1.1639894556969455e-03 2.3198781842811104e-03 0.0000000000000000e+00  -1.1603427476397580e-03 2.3472024611326733e-03 0.0000000000000000e+00  -1.1560218800648094e-03 2.3747801446960723e-03 0.0000000000000000e+00  -1.1512889692972311e-03 2.4025031083715117e-03 0.0000000000000000e+00  -1.1399337754217102e-03 2.4608092774495204e-03 0.0000000000000000e+00  -1.1332989522946117e-03 2.4913797883980991e-03 0.0000000000000000e+00  -1.1262043724198628e-03 2.5225304014637666e-03 0.0000000000000000e+00  -1.1185995830375565e-03 2.5540927045678394e-03 0.0000000000000000e+00  -1.1106975684727597e-03 2.5862167341927948e-03 0.0000000000000000e+00  -1.1022534910354539e-03 2.6187758211969254e-03 0.0000000000000000e+00  -1.0935207511251839e-03 2.6519639503865314e-03 0.0000000000000000e+00  -1.0844275532827154e-03 2.6857207974418152e-03 0.0000000000000000e+00  -1.0750384630181726e-03 2.7200679153288054e-03 0.0000000000000000e+00  -1.0653251259758073e-03 2.7549154777078335e-03 0.0000000000000000e+00  -1.0554991006820947e-03 2.7903897842367813e-03 0.0000000000000000e+00  -1.0454186785887230e-03 2.8264537580772638e-03 0.0000000000000000e+00  -1.0352392857501610e-03 2.8631244102717310e-03 0.0000000000000000e+00  -1.0249657061180255e-03 2.9004116849203599e-03 0.0000000000000000e+00  -1.0146017011941036e-03 2.9383074188198215e-03 0.0000000000000000e+00  -1.0041402763179604e-03 2.9767890463289499e-03 0.0000000000000000e+00  -9.9369001598764760e-04 3.0158043583436863e-03 0.0000000000000000e+00  -9.8333976143518244e-04 3.0554458827865109e-03 0.0000000000000000e+00  -9.7307658547740497e-04 3.0956543993495059e-03 0.0000000000000000e+00  -9.6291398257649296e-04 3.1364519793763072e-03 0.0000000000000000e+00  -9.5290184389979740e-04 3.1778456927484154e-03 0.0000000000000000e+00  -9.4300806197100348e-04 3.2198188555559708e-03 0.0000000000000000e+00  -9.3343280982430851e-04 3.2622861451164129e-03 0.0000000000000000e+00  -9.2401733570808694e-04 3.3053347179688008e-03 0.0000000000000000e+00  -9.1494794521978118e-04 3.3488417253623557e-03 0.0000000000000000e+00  -9.0613724421213055e-04 3.3929099312150599e-03 0.0000000000000000e+00  -8.9766693815171753e-04 3.4374659038873194e-03 0.0000000000000000e+00  -8.8957629544953636e-04 3.4824213126075027e-03 0.0000000000000000e+00  -8.8188663229188391e-04 3.5278252262675338e-03 0.0000000000000000e+00  -8.7455819460758439e-04 3.5737510848696374e-03 0.0000000000000000e+00  -8.6775188940209922e-04 3.6199542436433788e-03 0.0000000000000000e+00  -8.6131645480877115e-04 3.6666512274514808e-03 0.0000000000000000e+00  -8.5540614983595741e-04 3.7136953461776780e-03 0.0000000000000000e+00  -8.4997920255178432e-04 3.7612034018269635e-03 0.0000000000000000e+00  -8.4507505980933569e-04 3.8088985283823039e-03 0.0000000000000000e+00  -8.4068540578076075e-04 3.8569028749099840e-03 0.0000000000000000e+00  -8.3686937048089766e-04 3.9052736016261221e-03 0.0000000000000000e+00  -8.3360885556070161e-04 3.9538451894968801e-03 0.0000000000000000e+00  -8.3092951990482600e-04 4.0026923420463083e-03 0.0000000000000000e+00  -8.2877199921387349e-04 4.0517729021901970e-03 0.0000000000000000e+00  -8.2739941923677695e-04 4.1010447191461054e-03 0.0000000000000000e+00  -8.2639332086336650e-04 4.1504410243502644e-03 0.0000000000000000e+00  -8.0453185361694171e-04 4.1999999999999997e-03 0.0000000000000000e+00  -7.8316617625903175e-04 4.1999999999999997e-03 0.0000000000000000e+00  -7.6204703427972160e-04 4.1999999999999997e-03 0.0000000000000000e+00  -7.4108373791287503e-04 4.1999999999999997e-03 0.0000000000000000e+00  -7.2020661602774914e-04 4.1999999999999997e-03 0.0000000000000000e+00  -6.9958267380792593e-04 4.1999999999999997e-03 0.0000000000000000e+00  -6.7897888789730744e-04 4.1999999999999997e-03 0.0000000000000000e+00  -6.5843090442350039e-04 4.1999999999999997e-03 0.0000000000000000e+00  -6.3789687486592514e-04 4.1999999999999997e-03 0.0000000000000000e+00  -6.1753041330508203e-04 4.1999999999999997e-03 0.0000000000000000e+00  -5.9711208216230291e-04 4.1999999999999997e-03 0.0000000000000000e+00  -5.7671016243103631e-04 4.1999999999999997e-03 0.0000000000000000e+00  -5.5631546275984416e-04 4.1999999999999997e-03 0.0000000000000000e+00  -5.3593628386793164e-04 4.1999999999999997e-03 0.0000000000000000e+00  -5.1555957824964951e-04 4.1999999999999997e-03 0.0000000000000000e+00  -4.9513186309152978e-04 4.1999999999999997e-03 0.0000000000000000e+00  -4.7469137705190702e-04 4.1999999999999997e-03 0.0000000000000000e+00  -4.5425137230270583e-04 4.1999999999999997e-03 0.0000000000000000e+00  -4.3380772746154367e-04 4.1999999999999997e-03 0.0000000000000000e+00  -4.1335682255798085e-04 4.1999999999999997e-03 0.0000000000000000e+00  -3.9290977742305268e-04 4.1999999999999997e-03 0.0000000000000000e+00  -3.7246874742215996e-04 4.1999999999999997e-03 0.0000000000000000e+00  -3.5204811979994637e-04 4.1999999999999997e-03 0.0000000000000000e+00  -3.3167484105076837e-04 4.1999999999999997e-03 0.0000000000000000e+00  -3.1131886131056290e-04 4.1999999999999997e-03 0.0000000000000000e+00  -2.9103316653117969e-04 4.1999999999999997e-03 0.0000000000000000e+00  -2.7084137820776553e-04 4.1999999999999997e-03 0.0000000000000000e+00  -2.5071699197747678e-04 4.1999999999999997e-03 0.0000000000000000e+00  -2.3076771444887988e-04 4.1999999999999997e-03 0.0000000000000000e+00  -2.1094839788544063e-04 4.1999999999999997e-03 0.0000000000000000e+00  -1.9127010057922860e-04 4.1999999999999997e-03 0.0000000000000000e+00  -1.7180435290773373e-04 4.1999999999999997e-03 0.0000000000000000e+00  -1.5252967906982261e-04 4.1999999999999997e-03 0.0000000000000000e+00  -1.3341795449119440e-04 4.1999999999999997e-03 0.0000000000000000e+00  -1.1468987435634683e-04 4.1999999999999997e-03 0.0000000000000000e+00  -9.6178542871590413e-05 4.1999999999999997e-03 0.0000000000000000e+00  -7.7976642221439508e-05 4.1999999999999997e-03 0.0000000000000000e+00  -6.0110345579033697e-05 4.1999999999999997e-03 0.0000000000000000e+00  -4.2514555462520353e-05 4.1999999999999997e-03 0.0000000000000000e+00  -2.5369246608425027e-05 4.1999999999999997e-03 0.0000000000000000e+00  -8.6441954790167784e-06 4.1999999999999997e-03 0.0000000000000000e+00  7.6270655039093281e-06 4.1999999999999997e-03 0.0000000000000000e+00  2.3521635296873634e-05 4.1999999999999997e-03 0.0000000000000000e+00  3.9023558934215211e-05 4.1999999999999997e-03 0.0000000000000000e+00  5.3922294926906813e-05 4.1999999999999997e-03 0.0000000000000000e+00  6.8444471157102032e-05 4.1999999999999997e-03 0.0000000000000000e+00  8.2477118952559015e-05 4.1999999999999997e-03 0.0000000000000000e+00  9.5811549097905214e-05 4.1999999999999997e-03 0.0000000000000000e+00  1.0871553768597505e-04 4.1999999999999997e-03 0.0000000000000000e+00  1.2117770583165389e-04 4.1999999999999997e-03 0.0000000000000000e+00  1.3306660486482556e-04 4.1999999999999997e-03 0.0000000000000000e+00  1.4432495745493983e-04 4.1999999999999997e-03 0.0000000000000000e+00  1.5505001648917437e-04 4.1999999999999997e-03 0.0000000000000000e+00  1.6530767082508627e-04 4.1999999999999997e-03 0.0000000000000000e+00  1.7495258238019870e-04 4.1999999999999997e-03 0.0000000000000000e+00  1.8404164385227561e-04 4.1999999999999997e-03 0.0000000000000000e+00  1.9263818255518310e-04 4.1999999999999997e-03 0.0000000000000000e+00  2.0075829179204142e-04 4.1999999999999997e-03 0.0000000000000000e+00  2.0820306150505527e-04 4.1999999999999997e-03 0.0000000000000000e+00  2.1524733807525394e-04 4.1999999999999997e-03 0.0000000000000000e+00  2.2175716425980633e-04 4.1999999999999997e-03 0.0000000000000000e+00  2.2777868477570447e-04 4.1999999999999997e-03 0.0000000000000000e+00  2.3327237489148957e-04 4.1999999999999997e-03 0.0000000000000000e+00  2.3840483328914098e-04 4.1999999999999997e-03 0.0000000000000000e+00  2.4312192301604782e-04 4.1999999999999997e-03 0.0000000000000000