<?xml version="1.0"?>
<VTKFile type="UnstructuredGrid"  version="0.1"  >
<UnstructuredGrid>
<Piece  NumberOfPoints="15540" NumberOfCells="30546">
<Points>
<DataArray  type="Float64"  NumberOfComponents="3"  format="ascii">0 0 0  -0.5 -0.5 0  0.5 -0.5 0  0.5 0 0  0.5 0.5 0  -0.5 0.5 0  -0.5 0.0001 0  -0.5 -0.0001 0  0.5 0.1 0  0.5 -0.1 0  -0.5 -0.1 0  -0.5 0.1 0  -0.4900000000000277 -0.5 0  -0.4800000000000555 -0.5 0  -0.4700000000000832 -0.5 0  -0.4600000000001109 -0.5 0  -0.4500000000001387 -0.5 0  -0.4400000000001664 -0.5 0  -0.4300000000001942 -0.5 0  -0.4200000000002219 -0.5 0  -0.4100000000002497 -0.5 0  -0.4000000000002774 -0.5 0  -0.3900000000003052 -0.5 0  -0.3800000000003328 -0.5 0  -0.3700000000003606 -0.5 0  -0.3600000000003883 -0.5 0  -0.3500000000004161 -0.5 0  -0.3400000000004438 -0.5 0  -0.3300000000004716 -0.5 0  -0.3200000000004993 -0.5 0  -0.3100000000005271 -0.5 0  -0.3000000000005548 -0.5 0  -0.2900000000005825 -0.5 0  -0.2800000000006103 -0.5 0  -0.2700000000006381 -0.5 0  -0.2600000000006658 -0.5 0  -0.2500000000006935 -0.5 0  -0.2400000000007212 -0.5 0  -0.230000000000749 -0.5 0  -0.2200000000007767 -0.5 0  -0.2100000000008044 -0.5 0  -0.2000000000008322 -0.5 0  -0.19000000000086 -0.5 0  -0.1800000000008877 -0.5 0  -0.1700000000009154 -0.5 0  -0.1600000000009431 -0.5 0  -0.1500000000009709 -0.5 0  -0.1400000000009986 -0.5 0  -0.1300000000010264 -0.5 0  -0.1200000000010541 -0.5 0  -0.1100000000010818 -0.5 0  -0.1000000000011096 -0.5 0  -0.09000000000113734 -0.5 0  -0.08000000000116503 -0.5 0  -0.07000000000119283 -0.5 0  -0.06000000000122058 -0.5 0  -0.05000000000124827 -0.5 0  -0.04000000000127607 -0.5 0  -0.03000000000130376 -0.5 0  -0.02000000000133151 -0.5 0  -0.01000000000135925 -0.5 0  -1.376121439022882e-12 -0.5 0  0.009999999998640763 -0.5 0  0.01999999999866864 -0.5 0  0.02999999999869629 -0.5 0  0.03999999999872406 -0.5 0  0.04999999999875182 -0.5 0  0.05999999999877947 -0.5 0  0.06999999999880724 -0.5 0  0.079999999998835 -0.5 0  0.08999999999886266 -0.5 0  0.09999999999889042 -0.5 0  0.1099999999989182 -0.5 0  0.1199999999989459 -0.5 0  0.1299999999989737 -0.5 0  0.1399999999990014 -0.5 0  0.1499999999990291 -0.5 0  0.1599999999990568 -0.5 0  0.1699999999990847 -0.5 0  0.1799999999991124 -0.5 0  0.1899999999991401 -0.5 0  0.1999999999991678 -0.5 0  0.2099999999991955 -0.5 0  0.2199999999992234 -0.5 0  0.2299999999992511 -0.5 0  0.2399999999992788 -0.5 0  0.2499999999993066 -0.5 0  0.2599999999993342 -0.5 0  0.269999999999362 -0.5 0  0.2799999999993897 -0.5 0  0.2899999999994175 -0.5 0  0.2999999999994452 -0.5 0  0.3099999999994729 -0.5 0  0.3199999999995007 -0.5 0  0.3299999999995284 -0.5 0  0.3399999999995562 -0.5 0  0.3499999999995839 -0.5 0  0.3599999999996116 -0.5 0  0.3699999999996393 -0.5 0  0.379999999999667 -0.5 0  0.3899999999996949 -0.5 0  0.3999999999997226 -0.5 0  0.4099999999997503 -0.5 0  0.419999999999778 -0.5 0  0.4299999999998058 -0.5 0  0.4399999999998336 -0.5 0  0.4499999999998613 -0.5 0  0.4599999999998891 -0.5 0  0.4699999999999167 -0.5 0  0.4799999999999445 -0.5 0  0.4899999999999722 -0.5 0  0.5 -0.4902110204681464 0  0.5 -0.4804459958734807 0  0.5 -0.4707048677450883 0  0.5 -0.4609875815766065 0  0.5 -0.4512940759251849 0  0.5 -0.4416242912883993 0  0.5 -0.4319781678689807 0  0.5 -0.4223556545383647 0  0.5 -0.4127566896324213 0  0.5 -0.4031812128200121 0  0.5 -0.3936291733057916 0  0.5 -0.3841005081172659 0  0.5 -0.3745951585781932 0  0.5 -0.3651130778999337 0  0.5 -0.3556541993788045 0  0.5 -0.3462184677228392 0  0.5 -0.3368058273705318 0  0.5 -0.3274162224888609 0  0.5 -0.3180495969712945 0  0.5 -0.3087058944357755 0  0.5 -0.299385058222682 0  0.5 -0.2900870313927414 0  0.5 -0.2808117567250807 0  0.5 -0.2715591844628491 0  0.5 -0.2623292564012653 0  0.5 -0.253121909553727 0  0.5 -0.2439371050851549 0  0.5 -0.2347747685524501 0  0.5 -0.2256348634421331 0  0.5 -0.2165173209784076 0  0.5 -0.207422087829958 0  0.5 -0.1983491207029381 0  0.5 -0.1892983550950482 0  0.5 -0.1802697378305253 0  0.5 -0.1712632154965152 0  0.5 -0.1622787344187354 0  0.5 -0.1533162406595534 0  0.5 -0.1443756800160514 0  0.5 -0.1354569980180493 0  0.5 -0.1265601399261414 0  0.5 -0.1176850622761093 0  0.5 -0.1088317009011999 0  0.5 -0.09166666666668973 0  0.5 -0.08333333333337943 0  0.5 -0.07500000000006915 0  0.5 -0.06666666666675886 0  0.5 -0.05833333333344858 0  0.5 -0.05000000000013693 0  0.5 -0.04166666666678191 0  0.5 -0.03333333333342643 0  0.5 -0.02500000000006916 0  0.5 -0.01666666666671188 0  0.5 -0.00833333333335548 0  0.5 0.008333333333318314 0  0.5 0.01666666666663358 0  0.5 0.02499999999994162 0  0.5 0.03333333333325101 0  0.5 0.04166666666655769 0  0.5 0.04999999999986843 0  0.5 0.05833333333322258 0  0.5 0.06666666666657715 0  0.5 0.07499999999993352 0  0.5 0.08333333333328992 0  0.5 0.09166666666664541 0  0.5 0.1088317009011616 0  0.5 0.1176850622760307 0  0.5 0.1265601399260203 0  0.5 0.1354569980178909 0  0.5 0.1443756800158549 0  0.5 0.153316240659315 0  0.5 0.1622787344184454 0  0.5 0.1712632154961752 0  0.5 0.1802697378301332 0  0.5 0.1892983550946039 0  0.5 0.1983491207024433 0  0.5 0.2074220878294123 0  0.5 0.216517320977811 0  0.5 0.2256348634414833 0  0.5 0.2347747685517479 0  0.5 0.2439371050844009 0  0.5 0.2531219095529224 0  0.5 0.2623292564004089 0  0.5 0.2715591844619371 0  0.5 0.2808117567241139 0  0.5 0.290087031391723 0  0.5 0.2993850582216101 0  0.5 0.3087058944347426 0  0.5 0.3180495969703129 0  0.5 0.3274162224879299 0  0.5 0.3368058273696494 0  0.5 0.3462184677220051 0  0.5 0.3556541993780186 0  0.5 0.3651130778991989 0  0.5 0.3745951585775107 0  0.5 0.3841005081166359 0  0.5 0.3936291733052134 0  0.5 0.4031812128194852 0  0.5 0.412756689631945 0  0.5 0.4223556545379392 0  0.5 0.431978167868607 0  0.5 0.4416242912880781 0  0.5 0.4512940759249164 0  0.5 0.4609875815763912 0  0.5 0.4707048677449264 0  0.5 0.4804459958733726 0  0.5 0.4902110204680924 0  0.4900000000000277 0.5 0  0.4800000000000555 0.5 0  0.4700000000000832 0.5 0  0.4600000000001109 0.5 0  0.4500000000001387 0.5 0  0.4400000000001664 0.5 0  0.4300000000001942 0.5 0  0.4200000000002219 0.5 0  0.4100000000002497 0.5 0  0.4000000000002774 0.5 0  0.3900000000003052 0.5 0  0.3800000000003328 0.5 0  0.3700000000003606 0.5 0  0.3600000000003883 0.5 0  0.3500000000004161 0.5 0  0.3400000000004438 0.5 0  0.3300000000004716 0.5 0  0.3200000000004993 0.5 0  0.3100000000005271 0.5 0  0.3000000000005548 0.5 0  0.2900000000005825 0.5 0  0.2800000000006103 0.5 0  0.2700000000006381 0.5 0  0.2600000000006658 0.5 0  0.2500000000006935 0.5 0  0.2400000000007212 0.5 0  0.230000000000749 0.5 0  0.2200000000007767 0.5 0  0.2100000000008044 0.5 0  0.2000000000008322 0.5 0  0.19000000000086 0.5 0  0.1800000000008877 0.5 0  0.1700000000009154 0.5 0  0.1600000000009431 0.5 0  0.1500000000009709 0.5 0  0.1400000000009986 0.5 0  0.1300000000010264 0.5 0  0.1200000000010541 0.5 0  0.1100000000010818 0.5 0  0.1000000000011096 0.5 0  0.09000000000113734 0.5 0  0.08000000000116503 0.5 0  0.07000000000119283 0.5 0  0.06000000000122058 0.5 0  0.05000000000124827 0.5 0  0.04000000000127607 0.5 0  0.03000000000130376 0.5 0  0.02000000000133151 0.5 0  0.01000000000135925 0.5 0  1.376121439022882e-12 0.5 0  -0.009999999998640763 0.5 0  -0.01999999999866864 0.5 0  -0.02999999999869629 0.5 0  -0.03999999999872406 0.5 0  -0.04999999999875182 0.5 0  -0.05999999999877947 0.5 0  -0.06999999999880724 0.5 0  -0.079999999998835 0.5 0  -0.08999999999886266 0.5 0  -0.09999999999889042 0.5 0  -0.1099999999989182 0.5 0  -0.1199999999989459 0.5 0  -0.1299999999989737 0.5 0  -0.1399999999990014 0.5 0  -0.1499999999990291 0.5 0  -0.1599999999990568 0.5 0  -0.1699999999990847 0.5 0  -0.1799999999991124 0.5 0  -0.1899999999991401 0.5 0  -0.1999999999991678 0.5 0  -0.2099999999991955 0.5 0  -0.2199999999992234 0.5 0  -0.2299999999992511 0.5 0  -0.2399999999992788 0.5 0  -0.2499999999993066 0.5 0  -0.2599999999993342 0.5 0  -0.269999999999362 0.5 0  -0.2799999999993897 0.5 0  -0.2899999999994175 0.5 0  -0.2999999999994452 0.5 0  -0.3099999999994729 0.5 0  -0.3199999999995007 0.5 0  -0.3299999999995284 0.5 0  -0.3399999999995562 0.5 0  -0.3499999999995839 0.5 0  -0.3599999999996116 0.5 0  -0.3699999999996393 0.5 0  -0.379999999999667 0.5 0  -0.3899999999996949 0.5 0  -0.3999999999997226 0.5 0  -0.4099999999997503 0.5 0  -0.419999999999778 0.5 0  -0.4299999999998058 0.5 0  -0.4399999999998336 0.5 0  -0.4499999999998613 0.5 0  -0.4599999999998891 0.5 0  -0.4699999999999167 0.5 0  -0.4799999999999445 0.5 0  -0.4899999999999722 0.5 0  -0.5 0.4902110204681464 0  -0.5 0.4804459958734807 0  -0.5 0.4707048677450883 0  -0.5 0.4609875815766065 0  -0.5 0.4512940759251849 0  -0.5 0.4416242912883993 0  -0.5 0.4319781678689807 0  -0.5 0.4223556545383647 0  -0.5 0.4127566896324213 0  -0.5 0.4031812128200121 0  -0.5 0.3936291733057916 0  -0.5 0.3841005081172659 0  -0.5 0.3745951585781932 0  -0.5 0.3651130778999337 0  -0.5 0.3556541993788045 0  -0.5 0.3462184677228392 0  -0.5 0.3368058273705318 0  -0.5 0.3274162224888609 0  -0.5 0.3180495969712945 0  -0.5 0.3087058944357755 0  -0.5 0.299385058222682 0  -0.5 0.2900870313927414 0  -0.5 0.2808117567250807 0  -0.5 0.2715591844628491 0  -0.5 0.2623292564012653 0  -0.5 0.253121909553727 0  -0.5 0.2439371050851549 0  -0.5 0.2347747685524501 0  -0.5 0.2256348634421331 0  -0.5 0.2165173209784076 0  -0.5 0.207422087829958 0  -0.5 0.1983491207029381 0  -0.5 0.1892983550950482 0  -0.5 0.1802697378305253 0  -0.5 0.1712632154965152 0  -0.5 0.1622787344187354 0  -0.5 0.1533162406595534 0  -0.5 0.1443756800160514 0  -0.5 0.1354569980180493 0  -0.5 0.1265601399261414 0  -0.5 0.1176850622761093 0  -0.5 0.1088317009011999 0  -0.5 0.09167500000001694 0  -0.5 0.08335000000003931 0  -0.5 0.07502500000006167 0  -0.5 0.06670000000008947 0  -0.5 0.05837500000011001 0  -0.5 0.0500500000001328 0  -0.5 0.0417250000001127 0  -0.5 0.03340000000008944 0  -0.5 0.02507500000006573 0  -0.5 0.01675000000004653 0  -0.5 0.008425000000027341 
[...]
<PointData  Vectors="f_20"> 
<DataArray  type="Float64"  Name="f_20"  NumberOfComponents="3" format="ascii">-6.8413560038032507e-06 7.4227731762190968e-05 0.0000000000000000e+00  0.0000000000000000e+00 0.0000000000000000e+00 0.0000000000000000e+00  0.0000000000000000e+00 0.0000000000000000e+00 0.0000000000000000e+00  -4.4337725080155991e-05 4.5249082794249111e-05 0.0000000000000000e+00  8.0900294751918268e-05 5.5999999999999999e-03 0.0000000000000000e+00  8.7894868512565966e-05 5.5999999999999999e-03 0.0000000000000000e+00  8.4366356718098661e-05 5.6012424436840515e-03 0.0000000000000000e+00  -1.4865229316479632e-06 -7.6466386265953315e-07 0.0000000000000000e+00  7.6406561723958187e-05 5.5849384649397553e-03 0.0000000000000000e+00  -9.1715614844292170e-06 1.4847105283571268e-05 0.0000000000000000e+00  -8.8701106855089240e-07 -7.5785590767761144e-07 0.0000000000000000e+00  8.5297045815194405e-05 5.6012376936211087e-03 0.0000000000000000e+00  0.0000000000000000e+00 0.0000000000000000e+00 0.0000000000000000e+00  0.0000000000000000e+00 0.0000000000000000e+00 0.0000000000000000e+00  0.0000000000000000e+00 0.0000000000000000e+00 0.0000000000000000e+00  0.0000000000000000e+00 0.0000000000000000e+00 0.0000000000000000e+00  0.0000000000000000e+00 0.0000000000000000e+00 0.0000000000000000e+00  0.0000000000000000e+00 0.0000000000000000e+00 0.0000000000000000e+00  0.0000000000000000e+00 0.0000000000000000e+00 0.0000000000000000e+00  0.0000000000000000e+00 0.0000000000000000e+00 0.0000000000000000e+00  0.0000000000000000e+00 0.0000000000000000e+00 0.0000000000000000e+00  0.0000000000000000e+00 0.0000000000000000e+00 0.0000000000000000e+00  0.0000000000000000e+00 0.0000000000000000e+00 0.0000000000000000e+00  0.0000000000000000e+00 0.0000000000000000e+00 0.0000000000000000e+00  0.0000000000000000e+00 0.0000000000000000e+00 0.0000000000000000e+00  0.0000000000000000e+00 0.0000000000000000e+00 0.0000000000000000e+00  0.0000000000000000e+00 0.0000000000000000e+00 0.0000000000000000e+00  0.0000000000000000e+00 0.0000000000000000e+00 0.0000000000000000e+00  0.0000000000000000e+00 0.0000000000000000e+00 0.0000000000000000e+00  0.0000000000000000e+00 0.0000000000000000e+00 0.0000000000000000e+00  0.0000000000000000e+00 0.0000000000000000e+00 0.0000000000000000e+00  0.0000000000000000e+00 0.0000000000000000e+00 0.0000000000000000e+00  0.0000000000000000e+00 0.0000000000000000e+00 0.0000000000000000e+00  0.0000000000000000e+00 0.0000000000000000e+00 0.0000000000000000e+00  0.0000000000000000e+00 0.0000000000000000e+00 0.0000000000000000e+00  0.0000000000000000e+00 0.0000000000000000e+00 0.0000000000000000e+00  0.0000000000000000e+00 0.0000000000000000e+00 0.0000000000000000e+00  0.0000000000000000e+00 0.0000000000000000e+00 0.0000000000000000e+00  0.0000000000000000e+00 0.0000000000000000e+00 0.0000000000000000e+00  0.0000000000000000e+00 0.0000000000000000e+00 0.0000000000000000e+00  0.0000000000000000e+00 0.0000000000000000e+00 0.0000000000000000e+00  0.0000000000000000e+00 0.0000000000000000e+00 0.0000000000000000e+00  0.0000000000000000e+00 0.0000000000000000e+00 0.0000000000000000e+00  0.0000000000000000e+00 0.0000000000000000e+00 0.0000000000000000e+00  0.0000000000000000e+00 0.0000000000000000e+00 0.0000000000000000e+00  0.0000000000000000e+00 0.0000000000000000e+00 0.0000000000000000e+00  0.0000000000000000e+00 0.0000000000000000e+00 0.0000000000000000e+00  0.0000000000000000e+00 0.0000000000000000e+00 0.0000000000000000e+00  0.0000000000000000e+00 0.0000000000000000e+00 0.0000000000000000e+00  0.0000000000000000e+00 0.0000000000000000e+00 0.0000000000000000e+00  0.0000000000000000e+00 0.0000000000000000e+00 0.0000000000000000e+00  0.0000000000000000e+00 0.0000000000000000e+00 0.0000000000000000e+00  0.0000000000000000e+00 0.0000000000000000e+00 0.0000000000000000e+00  0.0000000000000000e+00 0.0000000000000000e+00 0.0000000000000000e+00  0.0000000000000000e+00 0.0000000000000000e+00 0.0000000000000000e+00  0.0000000000000000e+00 0.0000000000000000e+00 0.0000000000000000e+00  0.0000000000000000e+00 0.0000000000000000e+00 0.0000000000000000e+00  0.0000000000000000e+00 0.0000000000000000e+00 0.0000000000000000e+00  0.0000000000000000e+00 0.0000000000000000e+00 0.0000000000000000e+00  0.0000000000000000e+00 0.0000000000000000e+00 0.0000000000000000e+00  0.0000000000000000e+00 0.0000000000000000e+00 0.0000000000000000e+00  0.0000000000000000e+00 0.0000000000000000e+00 0.0000000000000000e+00  0.0000000000000000e+00 0.0000000000000000e+00 0.0000000000000000e+00  0.0000000000000000e+00 0.0000000000000000e+00 0.0000000000000000e+00  0.0000000000000000e+00 0.0000000000000000e+00 0.0000000000000000e+00  0.0000000000000000e+00 0.0000000000000000e+00 0.0000000000000000e+00  0.0000000000000000e+00 0.0000000000000000e+00 0.0000000000000000e+00  0.0000000000000000e+00 0.0000000000000000e+00 0.0000000000000000e+00  0.0000000000000000e+00 0.0000000000000000e+00 0.0000000000000000e+00  0.0000000000000000e+00 0.0000000000000000e+00 0.0000000000000000e+00  0.0000000000000000e+00 0.0000000000000000e+00 0.0000000000000000e+00  0.0000000000000000e+00 0.0000000000000000e+00 0.0000000000000000e+00  0.0000000000000000e+00 0.0000000000000000e+00 0.0000000000000000e+00  0.0000000000000000e+00 0.0000000000000000e+00 0.0000000000000000e+00  0.0000000000000000e+00 0.0000000000000000e+00 0.0000000000000000e+00  0.0000000000000000e+00 0.0000000000000000e+00 0.0000000000000000e+00  0.0000000000000000e+00 0.0000000000000000e+00 0.0000000000000000e+00  0.0000000000000000e+00 0.0000000000000000e+00 0.0000000000000000e+00  0.0000000000000000e+00 0.0000000000000000e+00 0.0000000000000000e+00  0.0000000000000000e+00 0.0000000000000000e+00 0.0000000000000000e+00  0.0000000000000000e+00 0.0000000000000000e+00 0.0000000000000000e+00  0.0000000000000000e+00 0.0000000000000000e+00 0.0000000000000000e+00  0.0000000000000000e+00 0.0000000000000000e+00 0.0000000000000000e+00  0.0000000000000000e+00 0.0000000000000000e+00 0.0000000000000000e+00  0.0000000000000000e+00 0.0000000000000000e+00 0.0000000000000000e+00  0.0000000000000000e+00 0.0000000000000000e+00 0.0000000000000000e+00  0.0000000000000000e+00 0.0000000000000000e+00 0.0000000000000000e+00  0.0000000000000000e+00 0.0000000000000000e+00 0.0000000000000000e+00  0.0000000000000000e+00 0.0000000000000000e+00 0.0000000000000000e+00  0.0000000000000000e+00 0.0000000000000000e+00 0.0000000000000000e+00  0.0000000000000000e+00 0.0000000000000000e+00 0.0000000000000000e+00  0.0000000000000000e+00 0.0000000000000000e+00 0.0000000000000000e+00  0.0000000000000000e+00 0.0000000000000000e+00 0.0000000000000000e+00  0.0000000000000000e+00 0.0000000000000000e+00 0.0000000000000000e+00  0.0000000000000000e+00 0.0000000000000000e+00 0.0000000000000000e+00  0.0000000000000000e+00 0.0000000000000000e+00 0.0000000000000000e+00  0.0000000000000000e+00 0.0000000000000000e+00 0.0000000000000000e+00  0.0000000000000000e+00 0.0000000000000000e+00 0.0000000000000000e+00  0.0000000000000000e+00 0.0000000000000000e+00 0.0000000000000000e+00  0.0000000000000000e+00 0.0000000000000000e+00 0.0000000000000000e+00  0.0000000000000000e+00 0.0000000000000000e+00 0.0000000000000000e+00  0.0000000000000000e+00 0.0000000000000000e+00 0.0000000000000000e+00  0.0000000000000000e+00 0.0000000000000000e+00 0.0000000000000000e+00  0.0000000000000000e+00 0.0000000000000000e+00 0.0000000000000000e+00  0.0000000000000000e+00 0.0000000000000000e+00 0.0000000000000000e+00  0.0000000000000000e+00 0.0000000000000000e+00 0.0000000000000000e+00  0.0000000000000000e+00 0.0000000000000000e+00 0.0000000000000000e+00  0.0000000000000000e+00 0.0000000000000000e+00 0.0000000000000000e+00  0.0000000000000000e+00 0.0000000000000000e+00 0.0000000000000000e+00  0.0000000000000000e+00 0.0000000000000000e+00 0.0000000000000000e+00  0.0000000000000000e+00 0.0000000000000000e+00 0.0000000000000000e+00  -6.8494602472081506e-07 7.1817303542811044e-07 0.0000000000000000e+00  -1.1263355493900659e-06 1.2426272269016886e-06 0.0000000000000000e+00  -1.4869419335788944e-06 1.6915549347215417e-06 0.0000000000000000e+00  -1.8024593959255583e-06 2.1011096823696010e-06 0.0000000000000000e+00  -2.0850642696067382e-06 2.4836279477848286e-06 0.0000000000000000e+00  -2.3437276778490311e-06 2.8490254437019525e-06 0.0000000000000000e+00  -2.5858725883827477e-06 3.2017516848185058e-06 0.0000000000000000e+00  -2.8088172161404274e-06 3.5465394203992927e-06 0.0000000000000000e+00  -3.0189378017844692e-06 3.8848928747708500e-06 0.0000000000000000e+00  -3.2204329302213042e-06 4.2168330689919858e-06 0.0000000000000000e+00  -3.4119756523944127e-06 4.5456213412609526e-06 0.0000000000000000e+00  -3.5966583691345151e-06 4.8698330612417736e-06 0.0000000000000000e+00  -3.7741219061701270e-06 5.1925401572845714e-06 0.0000000000000000e+00  -3.9472758300252120e-06 5.5115163398193059e-06 0.0000000000000000e+00  -4.1157796584464357e-06 5.8294340951054846e-06 0.0000000000000000e+00  -4.2813346356736211e-06 6.1451485243199659e-06 0.0000000000000000e+00  -4.4431571776203509e-06 6.4594421480929343e-06 0.0000000000000000e+00  -4.6028334567636947e-06 6.7722619800968566e-06 0.0000000000000000e+00  -4.7607818918597485e-06 7.0843555293788586e-06 0.0000000000000000e+00  -4.9171034686336943e-06 7.3953344641707066e-06 0.0000000000000000e+00  -5.0724084351390533e-06 7.7056558450775971e-06 0.0000000000000000e+00  -5.2271627949852662e-06 8.0154147896755330e-06 0.0000000000000000e+00  -5.3817288141689164e-06 8.3247049022522120e-06 0.0000000000000000e+00  -5.5364590185098593e-06 8.6335640546988886e-06 0.0000000000000000e+00  -5.6916672201459939e-06 8.9422812809128870e-06 0.0000000000000000e+00  -5.8478237221303512e-06 9.2510955163250282e-06 0.0000000000000000e+00  -6.0053099054218484e-06 9.5603755273875250e-06 0.0000000000000000e+00  -6.1635325493263200e-06 9.8692341891533567e-06 0.0000000000000000e+00  -6.3243700528105353e-06 1.0179144509768289e-05 0.0000000000000000e+00  -6.4876864920397727e-06 1.0489912160202793e-05 0.0000000000000000e+00  -6.6538483732830773e-06 1.0801141183979682e-05 0.0000000000000000e+00  -6.8229714487967492e-06 1.1114259949428218e-05 0.0000000000000000e+00  -6.9965503656276399e-06 1.1429076158316998e-05 0.0000000000000000e+00  -7.1745051677132334e-06 1.1746898400918375e-05 0.0000000000000000e+00  -7.3570645753969647e-06 1.2066066456822153e-05 0.0000000000000000e+00  -7.5474566330998329e-06 1.2389163534364037e-05 0.0000000000000000e+00  -7.7444962955852277e-06 1.2716107203868104e-05 0.0000000000000000e+00  -7.9494436910150720e-06 1.3050280565104920e-05 0.0000000000000000e+00  -8.1655312634475887e-06 1.3388521825527236e-05 0.0000000000000000e+00  -8.3920919631394524e-06 1.3735277066588376e-05 0.0000000000000000e+00  -8.6346156401365657e-06 1.4091860261645176e-05 0.0000000000000000e+00  -8.8938252163608270e-06 1.4464124648759563e-05 0.0000000000000000e+00  -9.4632506241337958e-06 1.5232659840219189e-05 0.0000000000000000e+00  -9.7832346814263063e-06 1.5647440736220382e-05 0.0000000000000000e+00  -1.0141114606054727e-05 1.6084923610419445e-05 0.0000000000000000e+00  -1.0551663639482287e-05 1.6583119535966625e-05 0.0000000000000000e+00  -1.1015380308901020e-05 1.7119309027504378e-05 0.0000000000000000e+00  -1.1588277976547818e-05 1.7737573440793856e-05 0.0000000000000000e+00  -1.2295148644728335e-05 1.8542646393997555e-05 0.0000000000000000e+00  -1.3255481556365589e-05 1.9544297537116365e-05 0.0000000000000000e+00  -1.4630778597481869e-05 2.0866927003802438e-05 0.0000000000000000e+00  -1.6894458211119222e-05 2.3127560562425763e-05 0.0000000000000000e+00  -2.2790608453100750e-05 2.8256504796876346e-05 0.0000000000000000e+00  3.1172244303260343e-06 5.5262094561400266e-03 0.0000000000000000e+00  6.1525513897300248e-05 5.5692106919365235e-03 0.0000000000000000e+00  6.8073549821644468e-05 5.5758629931244143e-03 0.0000000000000000e+00  7.0954490354682638e-05 5.5787602577024352e-03 0.0000000000000000e+00  7.2478208227396527e-05 5.5803483128099851e-03 0.0000000000000000e+00  7.3480380814692668e-05 5.5813963537475137e-03 0.0000000000000000e+00  7.4229489404787960e-05 5.5822593330788007e-03 0.0000000000000000e+00  7.4826167637180523e-05 5.5829410047873677e-03 0.0000000000000000e+00  7.5318215603848237e-05 5.5835217461417796e-03 0.0000000000000000e+00  7.5721323159204599e-05 5.5840258767678574e-03 0.0000000000000000e+00  7.6087381917852139e-05 5.5845034965645510e-03 0.0000000000000000e+00  7.6702486031084654e-05 5.5853633016856377e-03 0.0000000000000000e+00  7.6972871305971486e-05 5.5857738534490697e-03 0.0000000000000000e+00  7.7220168609281697e-05 5.5861635185160338e-03 0.0000000000000000e+00  7.7445745590496814e-05 5.5865401872720382e-03 0.0000000000000000e+00  7.7656571300914064e-05 5.5869061016687888e-03 0.0000000000000000e+00  7.7852258337890616e-05 5.5872672746267241e-03 0.0000000000000000e+00  7.8036419738673922e-05 5.5876193944591826e-03 0.0000000000000000e+00  7.8211121124906262e-05 5.5879670722459255e-03 0.0000000000000000e+00  7.8374076823603054e-05 5.5883101195522188e-03 0.0000000000000000e+00  7.8530042955439466e-05 5.5886522295987319e-03 0.0000000000000000e+00  7.8678546869123737e-05 5.5889908898637793e-03 0.0000000000000000e+00  7.8819655571606433e-05 5.5893280181448738e-03 0.0000000000000000e+00  7.8954941684153184e-05 5.5896630289228076e-03 0.0000000000000000e+00  7.9084453202833853e-05 5.5899983576509727e-03 0.0000000000000000e+00  7.9208515976131007e-05 5.5903331733800268e-03 0.0000000000000000e+00  7.9326032745767434e-05 5.5906666436170496e-03 0.0000000000000000e+00  7.9440393779512346e-05 5.5910018753064176e-03 0.0000000000000000e+00  7.9549681619143581e-05 5.5913367001766568e-03 0.0000000000000000e+00  7.9654202634973776e-05 5.5916716648738056e-03 0.0000000000000000e+00  7.9754358820145508e-05 5.5920069355450625e-03 0.0000000000000000e+00  7.9850201632377749e-05 5.5923432898386119e-03 0.0000000000000000e+00  7.9942259845267551e-05 5.5926805401407481e-03 0.0000000000000000e+00  8.0029430939794770e-05 5.5930185252326429e-03 0.0000000000000000e+00  8.0113077006682142e-05 5.5933580140028281e-03 0.0000000000000000e+00  8.0191545454011065e-05 5.5936972923268068e-03 0.0000000000000000e+00  8.0266961447921881e-05 5.5940388668982658e-03 0.0000000000000000e+00  8.0338186039132886e-05 5.5943811291317173e-03 0.0000000000000000e+00  8.0404628487920667e-05 5.5947241204630412e-03 0.0000000000000000e+00  8.0467423424142889e-05 5.5950678111546170e-03 0.0000000000000000e+00  8.0526213044280440e-05 5.5954137355166801e-03 0.0000000000000000e+00  8.0580608538465649e-05 5.5957594041877480e-03 0.0000000000000000e+00  8.0631042612484499e-05 5.5961072630297398e-03 0.0000000000000000e+00  8.0677068589522937e-05 5.5964557680191719e-03 0.0000000000000000e+00  8.0718831163727019e-05 5.5968062784087155e-03 0.0000000000000000e+00  8.0756540781449837e-05 5.5971568231785729e-03 0.0000000000000000e+00  8.0789896994465984e-05 5.5975084313573693e-03 0.0000000000000000e+00  8.0818706587274975e-05 5.5978616155291476e-03 0.0000000000000000e+00  8.0843352331403837e-05 5.5982153852226638e-03 0.0000000000000000e+00  8.0863490887900195e-05 5.5985703941593525e-03 0.0000000000000000e+00  8.0879580494693597e-05 5.5989265196313628e-03 0.0000000000000000e+00  8.0889760721654985e-05 5.5992835957908776e-03 0.0000000000000000e+00  8.0897257489055558e-05 5.5996413122159890e-03 0.0000000000000000e+00  8.1055462194640270e-05 5.5999999999999999e-03 0.0000000000000000e+00  8.1209768199791825e-05 5.5999999999999999e-03 0.0000000000000000e+00  8.1361833430249668e-05 5.5999999999999999e-03 0.0000000000000000e+00  8.1512156419190224e-05 5.5999999999999999e-03 0.0000000000000000e+00  8.1661199285084192e-05 5.5999999999999999e-03 0.0000000000000000e+00  8.1807336617110011e-05 5.5999999999999999e-03 0.0000000000000000e+00  8.1952477053077587e-05 5.5999999999999999e-03 0.0000000000000000e+00  8.2096181593493736e-05 5.5999999999999999e-03 0.0000000000000000e+00  8.2238672756628517e-05 5.5999999999999999e-03 0.0000000000000000e+00  8.2378508488644247e-05 5.5999999999999999e-03 0.0000000000000000e+00  8.2517769485415066e-05 5.5999999999999999e-03 0.0000000000000000e+00  8.2655588743958574e-05 5.5999999999999999e-03 0.0000000000000000e+00  8.2792074940634484e-05 5.5999999999999999e-03 0.0000000000000000e+00  8.2927053916057966e-05 5.5999999999999999e-03 0.0000000000000000e+00  8.3060772554163323e-05 5.5999999999999999e-03 0.0000000000000000e+00  8.3193859794163561e-05 5.5999999999999999e-03 0.0000000000000000e+00  8.3325914636061881e-05 5.5999999999999999e-03 0.0000000000000000e+00  8.3456720999829903e-05 5.5999999999999999e-03 0.0000000000000000e+00  8.3586456174662656e-05 5.5999999999999999e-03 0.0000000000000000e+00  8.3715368067437132e-05 5.5999999999999999e-03 0.0000000000000000e+00  8.3843318532622076e-05 5.5999999999999999e-03 0.0000000000000000e+00  8.3970411905509712e-05 5.5999999999999999e-03 0.0000000000000000e+00  8.4096645212905797e-05 5.5999999999999999e-03 0.0000000000000000e+00  8.4221892337716514e-05 5.5999999999999999e-03 0.0000000000000000e+00  8.4346508179095655e-05 5.5999999999999999e-03 0.0000000000000000e+00  8.4470146403000328e-05 5.5999999999999999e-03 0.0000000000000000e+00  8.4592761895634005e-05 5.5999999999999999e-03 0.0000000000000000e+00  8.4714653112429104e-05 5.5999999999999999e-03 0.0000000000000000e+00  8.4835111965349898e-05 5.5999999999999999e-03 0.0000000000000000e+00  8.4954597067296117e-05 5.5999999999999999e-03 0.0000000000000000e+00  8.5073112586970159e-05 5.5999999999999999e-03 0.0000000000000000e+00  8.5190247664278560e-05 5.5999999999999999e-03 0.0000000000000000e+00  8.5306235948742423e-05 5.5999999999999999e-03 0.0000000000000000e+00  8.5421338541599370e-05 5.5999999999999999e-03 0.0000000000000000e+00  8.5534111995944946e-05 5.5999999999999999e-03 0.0000000000000000e+00  8.5645799140522742e-05 5.5999999999999999e-03 0.0000000000000000e+00  8.5755837899528090e-05 5.5999999999999999e-03 0.0000000000000000e+00  8.5864080207000346e-05 5.5999999999999999e-03 0.0000000000000000e+00  8.5971000221502823e-05 5.5999999999999999e-03 0.0000000000000000e+00  8.6075424343870621e-05 5.5999999999999999e-03 0.0000000000000000e+00  8.6177655169007302e-05 5.5999999999999999e-03 0.0000000000000000e+00  8.6277509259723869e-05 5.5999999999999999e-03 0.0000000000000000e+00  8.6375452058238403e-05 5.5999999999999999e-03 0.0000000000000000e+00  8.6471352337891250e-05 5.5999999999999999e-03 0.0000000000000000e+00  8.6563990317015924e-05 5.5999999999999999e-03 0.0000000000000000e+00  8.6654707858437095e-05 5.5999999999999999e-03 0.0000000000000000e+00  8.6742856854854896e-05 5.5999999999999999e-03 0.0000000000000000e+00  8.6827065546088170e-05 5.5999999999999999e-03 0.0000000000000000e+00  8.6909009298917963e-05 5.5999999999999999e-03 0.0000000000000000e+00  8.6988599274168160e-05 5.5999999999999999e-03 0.0000000000000000e+00  8.7064993616695736e-05 5.5999999999999999e-03 0.0000000000000000e+00  8.7137838542364441e-05 5.5999999999999999e-03 0.0000000000000000e+00  8.7207701115922474e-05 5.5999999999999999e-03 0.0000000000000000e+00  8.7274976666504173e-05 5.5999999999999999e-03 0.0000000000000000e+00  8.7338660340275485e-05 5.5999999999999999e-03 0.0000000000000000e+00  8.7399166238799833e-05 5.5999999999999999e-03 0.0000000000000000e+00  8.7456802504976545e-05 5.5999999999999999e-03 0.0000000000000000e+00  8.7511670314792221e-05 5.5999999999999999e-03 0.0000000000000000e+00  8.7562501766368905e-05 5.5999999999999999e-03 0.0000000000000000e+00  8.7610950916323422e-05 5.5999999999999999e-03 0.0000000000000000e+00  8.7656175531590039e-05 5.5999999999999999e-03 0.0000000000000000e+00  8.7698425057298833e-05 5.5999999999999999e-03 0.0000000000000000e+00  8.7737432553002128e-05 5.5999999999999999e-03 0.0000000000000000e+00  8.7774210564140387e-05 5.5999999999999999e-03 0.0000000000000000e+00  8.7808404347816538e-05 5.5999999999999999e-03 0.0000000000000000e+00  8.7839788122711756e-05 5.5999999999999999e-03 0.0000000000000000e+00  8.7868326147889315e-05