<?xml version="1.0"?>
<VTKFile type="UnstructuredGrid"  version="0.1"  >
<UnstructuredGrid>
<Piece  NumberOfPoints="15540" NumberOfCells="30546">
<Points>
<DataArray  type="Float64"  NumberOfComponents="3"  format="ascii">0 0 0  -0.5 -0.5 0  0.5 -0.5 0  0.5 0 0  0.5 0.5 0  -0.5 0.5 0  -0.5 0.0001 0  -0.5 -0.0001 0  0.5 0.1 0  0.5 -0.1 0  -0.5 -0.1 0  -0.5 0.1 0  -0.4900000000000277 -0.5 0  -0.4800000000000555 -0.5 0  -0.4700000000000832 -0.5 0  -0.4600000000001109 -0.5 0  -0.4500000000001387 -0.5 0  -0.4400000000001664 -0.5 0  -0.4300000000001942 -0.5 0  -0.4200000000002219 -0.5 0  -0.4100000000002497 -0.5 0  -0.4000000000002774 -0.5 0  -0.3900000000003052 -0.5 0  -0.3800000000003328 -0.5 0  -0.3700000000003606 -0.5 0  -0.3600000000003883 -0.5 0  -0.3500000000004161 -0.5 0  -0.3400000000004438 -0.5 0  -0.3300000000004716 -0.5 0  -0.3200000000004993 -0.5 0  -0.3100000000005271 -0.5 0  -0.3000000000005548 -0.5 0  -0.2900000000005825 -0.5 0  -0.2800000000006103 -0.5 0  -0.2700000000006381 -0.5 0  -0.2600000000006658 -0.5 0  -0.2500000000006935 -0.5 0  -0.2400000000007212 -0.5 0  -0.230000000000749 -0.5 0  -0.2200000000007767 -0.5 0  -0.2100000000008044 -0.5 0  -0.2000000000008322 -0.5 0  -0.19000000000086 -0.5 0  -0.1800000000008877 -0.5 0  -0.1700000000009154 -0.5 0  -0.1600000000009431 -0.5 0  -0.1500000000009709 -0.5 0  -0.1400000000009986 -0.5 0  -0.1300000000010264 -0.5 0  -0.1200000000010541 -0.5 0  -0.1100000000010818 -0.5 0  -0.1000000000011096 -0.5 0  -0.09000000000113734 -0.5 0  -0.08000000000116503 -0.5 0  -0.07000000000119283 -0.5 0  -0.06000000000122058 -0.5 0  -0.05000000000124827 -0.5 0  -0.04000000000127607 -0.5 0  -0.03000000000130376 -0.5 0  -0.02000000000133151 -0.5 0  -0.01000000000135925 -0.5 0  -1.376121439022882e-12 -0.5 0  0.009999999998640763 -0.5 0  0.01999999999866864 -0.5 0  0.02999999999869629 -0.5 0  0.03999999999872406 -0.5 0  0.04999999999875182 -0.5 0  0.05999999999877947 -0.5 0  0.06999999999880724 -0.5 0  0.079999999998835 -0.5 0  0.08999999999886266 -0.5 0  0.09999999999889042 -0.5 0  0.1099999999989182 -0.5 0  0.1199999999989459 -0.5 0  0.1299999999989737 -0.5 0  0.1399999999990014 -0.5 0  0.1499999999990291 -0.5 0  0.1599999999990568 -0.5 0  0.1699999999990847 -0.5 0  0.1799999999991124 -0.5 0  0.1899999999991401 -0.5 0  0.1999999999991678 -0.5 0  0.2099999999991955 -0.5 0  0.2199999999992234 -0.5 0  0.2299999999992511 -0.5 0  0.2399999999992788 -0.5 0  0.2499999999993066 -0.5 0  0.2599999999993342 -0.5 0  0.269999999999362 -0.5 0  0.2799999999993897 -0.5 0  0.2899999999994175 -0.5 0  0.2999999999994452 -0.5 0  0.3099999999994729 -0.5 0  0.3199999999995007 -0.5 0  0.3299999999995284 -0.5 0  0.3399999999995562 -0.5 0  0.3499999999995839 -0.5 0  0.3599999999996116 -0.5 0  0.3699999999996393 -0.5 0  0.379999999999667 -0.5 0  0.3899999999996949 -0.5 0  0.3999999999997226 -0.5 0  0.4099999999997503 -0.5 0  0.419999999999778 -0.5 0  0.4299999999998058 -0.5 0  0.4399999999998336 -0.5 0  0.4499999999998613 -0.5 0  0.4599999999998891 -0.5 0  0.4699999999999167 -0.5 0  0.4799999999999445 -0.5 0  0.4899999999999722 -0.5 0  0.5 -0.4902110204681464 0  0.5 -0.4804459958734807 0  0.5 -0.4707048677450883 0  0.5 -0.4609875815766065 0  0.5 -0.4512940759251849 0  0.5 -0.4416242912883993 0  0.5 -0.4319781678689807 0  0.5 -0.4223556545383647 0  0.5 -0.4127566896324213 0  0.5 -0.4031812128200121 0  0.5 -0.3936291733057916 0  0.5 -0.3841005081172659 0  0.5 -0.3745951585781932 0  0.5 -0.3651130778999337 0  0.5 -0.3556541993788045 0  0.5 -0.3462184677228392 0  0.5 -0.3368058273705318 0  0.5 -0.3274162224888609 0  0.5 -0.3180495969712945 0  0.5 -0.3087058944357755 0  0.5 -0.299385058222682 0  0.5 -0.2900870313927414 0  0.5 -0.2808117567250807 0  0.5 -0.2715591844628491 0  0.5 -0.2623292564012653 0  0.5 -0.253121909553727 0  0.5 -0.2439371050851549 0  0.5 -0.2347747685524501 0  0.5 -0.2256348634421331 0  0.5 -0.2165173209784076 0  0.5 -0.207422087829958 0  0.5 -0.1983491207029381 0  0.5 -0.1892983550950482 0  0.5 -0.1802697378305253 0  0.5 -0.1712632154965152 0  0.5 -0.1622787344187354 0  0.5 -0.1533162406595534 0  0.5 -0.1443756800160514 0  0.5 -0.1354569980180493 0  0.5 -0.1265601399261414 0  0.5 -0.1176850622761093 0  0.5 -0.1088317009011999 0  0.5 -0.09166666666668973 0  0.5 -0.08333333333337943 0  0.5 -0.07500000000006915 0  0.5 -0.06666666666675886 0  0.5 -0.05833333333344858 0  0.5 -0.05000000000013693 0  0.5 -0.04166666666678191 0  0.5 -0.03333333333342643 0  0.5 -0.02500000000006916 0  0.5 -0.01666666666671188 0  0.5 -0.00833333333335548 0  0.5 0.008333333333318314 0  0.5 0.01666666666663358 0  0.5 0.02499999999994162 0  0.5 0.03333333333325101 0  0.5 0.04166666666655769 0  0.5 0.04999999999986843 0  0.5 0.05833333333322258 0  0.5 0.06666666666657715 0  0.5 0.07499999999993352 0  0.5 0.08333333333328992 0  0.5 0.09166666666664541 0  0.5 0.1088317009011616 0  0.5 0.1176850622760307 0  0.5 0.1265601399260203 0  0.5 0.1354569980178909 0  0.5 0.1443756800158549 0  0.5 0.153316240659315 0  0.5 0.1622787344184454 0  0.5 0.1712632154961752 0  0.5 0.1802697378301332 0  0.5 0.1892983550946039 0  0.5 0.1983491207024433 0  0.5 0.2074220878294123 0  0.5 0.216517320977811 0  0.5 0.2256348634414833 0  0.5 0.2347747685517479 0  0.5 0.2439371050844009 0  0.5 0.2531219095529224 0  0.5 0.2623292564004089 0  0.5 0.2715591844619371 0  0.5 0.2808117567241139 0  0.5 0.290087031391723 0  0.5 0.2993850582216101 0  0.5 0.3087058944347426 0  0.5 0.3180495969703129 0  0.5 0.3274162224879299 0  0.5 0.3368058273696494 0  0.5 0.3462184677220051 0  0.5 0.3556541993780186 0  0.5 0.3651130778991989 0  0.5 0.3745951585775107 0  0.5 0.3841005081166359 0  0.5 0.3936291733052134 0  0.5 0.4031812128194852 0  0.5 0.412756689631945 0  0.5 0.4223556545379392 0  0.5 0.431978167868607 0  0.5 0.4416242912880781 0  0.5 0.4512940759249164 0  0.5 0.4609875815763912 0  0.5 0.4707048677449264 0  0.5 0.4804459958733726 0  0.5 0.4902110204680924 0  0.4900000000000277 0.5 0  0.4800000000000555 0.5 0  0.4700000000000832 0.5 0  0.4600000000001109 0.5 0  0.4500000000001387 0.5 0  0.4400000000001664 0.5 0  0.4300000000001942 0.5 0  0.4200000000002219 0.5 0  0.4100000000002497 0.5 0  0.4000000000002774 0.5 0  0.3900000000003052 0.5 0  0.3800000000003328 0.5 0  0.3700000000003606 0.5 0  0.3600000000003883 0.5 0  0.3500000000004161 0.5 0  0.3400000000004438 0.5 0  0.3300000000004716 0.5 0  0.3200000000004993 0.5 0  0.3100000000005271 0.5 0  0.3000000000005548 0.5 0  0.2900000000005825 0.5 0  0.2800000000006103 0.5 0  0.2700000000006381 0.5 0  0.2600000000006658 0.5 0  0.2500000000006935 0.5 0  0.2400000000007212 0.5 0  0.230000000000749 0.5 0  0.2200000000007767 0.5 0  0.2100000000008044 0.5 0  0.2000000000008322 0.5 0  0.19000000000086 0.5 0  0.1800000000008877 0.5 0  0.1700000000009154 0.5 0  0.1600000000009431 0.5 0  0.1500000000009709 0.5 0  0.1400000000009986 0.5 0  0.1300000000010264 0.5 0  0.1200000000010541 0.5 0  0.1100000000010818 0.5 0  0.1000000000011096 0.5 0  0.09000000000113734 0.5 0  0.08000000000116503 0.5 0  0.07000000000119283 0.5 0  0.06000000000122058 0.5 0  0.05000000000124827 0.5 0  0.04000000000127607 0.5 0  0.03000000000130376 0.5 0  0.02000000000133151 0.5 0  0.01000000000135925 0.5 0  1.376121439022882e-12 0.5 0  -0.009999999998640763 0.5 0  -0.01999999999866864 0.5 0  -0.02999999999869629 0.5 0  -0.03999999999872406 0.5 0  -0.04999999999875182 0.5 0  -0.05999999999877947 0.5 0  -0.06999999999880724 0.5 0  -0.079999999998835 0.5 0  -0.08999999999886266 0.5 0  -0.09999999999889042 0.5 0  -0.1099999999989182 0.5 0  -0.1199999999989459 0.5 0  -0.1299999999989737 0.5 0  -0.1399999999990014 0.5 0  -0.1499999999990291 0.5 0  -0.1599999999990568 0.5 0  -0.1699999999990847 0.5 0  -0.1799999999991124 0.5 0  -0.1899999999991401 0.5 0  -0.1999999999991678 0.5 0  -0.2099999999991955 0.5 0  -0.2199999999992234 0.5 0  -0.2299999999992511 0.5 0  -0.2399999999992788 0.5 0  -0.2499999999993066 0.5 0  -0.2599999999993342 0.5 0  -0.269999999999362 0.5 0  -0.2799999999993897 0.5 0  -0.2899999999994175 0.5 0  -0.2999999999994452 0.5 0  -0.3099999999994729 0.5 0  -0.3199999999995007 0.5 0  -0.3299999999995284 0.5 0  -0.3399999999995562 0.5 0  -0.3499999999995839 0.5 0  -0.3599999999996116 0.5 0  -0.3699999999996393 0.5 0  -0.379999999999667 0.5 0  -0.3899999999996949 0.5 0  -0.3999999999997226 0.5 0  -0.4099999999997503 0.5 0  -0.419999999999778 0.5 0  -0.4299999999998058 0.5 0  -0.4399999999998336 0.5 0  -0.4499999999998613 0.5 0  -0.4599999999998891 0.5 0  -0.4699999999999167 0.5 0  -0.4799999999999445 0.5 0  -0.4899999999999722 0.5 0  -0.5 0.4902110204681464 0  -0.5 0.4804459958734807 0  -0.5 0.4707048677450883 0  -0.5 0.4609875815766065 0  -0.5 0.4512940759251849 0  -0.5 0.4416242912883993 0  -0.5 0.4319781678689807 0  -0.5 0.4223556545383647 0  -0.5 0.4127566896324213 0  -0.5 0.4031812128200121 0  -0.5 0.3936291733057916 0  -0.5 0.3841005081172659 0  -0.5 0.3745951585781932 0  -0.5 0.3651130778999337 0  -0.5 0.3556541993788045 0  -0.5 0.3462184677228392 0  -0.5 0.3368058273705318 0  -0.5 0.3274162224888609 0  -0.5 0.3180495969712945 0  -0.5 0.3087058944357755 0  -0.5 0.299385058222682 0  -0.5 0.2900870313927414 0  -0.5 0.2808117567250807 0  -0.5 0.2715591844628491 0  -0.5 0.2623292564012653 0  -0.5 0.253121909553727 0  -0.5 0.2439371050851549 0  -0.5 0.2347747685524501 0  -0.5 0.2256348634421331 0  -0.5 0.2165173209784076 0  -0.5 0.207422087829958 0  -0.5 0.1983491207029381 0  -0.5 0.1892983550950482 0  -0.5 0.1802697378305253 0  -0.5 0.1712632154965152 0  -0.5 0.1622787344187354 0  -0.5 0.1533162406595534 0  -0.5 0.1443756800160514 0  -0.5 0.1354569980180493 0  -0.5 0.1265601399261414 0  -0.5 0.1176850622761093 0  -0.5 0.1088317009011999 0  -0.5 0.09167500000001694 0  -0.5 0.08335000000003931 0  -0.5 0.07502500000006167 0  -0.5 0.06670000000008947 0  -0.5 0.05837500000011001 0  -0.5 0.0500500000001328 0  -0.5 0.0417250000001127 0  -0.5 0.03340000000008944 0  -0.5 0.02507500000006573 0  -0.5 0.01675000000004653 0  -0.5 0.008425000000027341 
[...]
<PointData  Vectors="f_20"> 
<DataArray  type="Float64"  Name="f_20"  NumberOfComponents="3" format="ascii">-5.0344962022040270e-04 1.6866222624917682e-03 0.0000000000000000e+00  0.0000000000000000e+00 0.0000000000000000e+00 0.0000000000000000e+00  0.0000000000000000e+00 0.0000000000000000e+00 0.0000000000000000e+00  -9.6658708666517209e-04 1.7569321217015001e-03 0.0000000000000000e+00  -6.9329195620210422e-04 3.5000000000000005e-03 0.0000000000000000e+00  2.1912550393412921e-04 3.5000000000000001e-03 0.0000000000000000e+00  -2.3958603951271975e-04 3.6687907234953842e-03 0.0000000000000000e+00  -1.8737394972635600e-04 -1.0059008070513117e-04 0.0000000000000000e+00  -9.4629581960000613e-04 2.0304859415890002e-03 0.0000000000000000e+00  -9.1439121125114740e-04 1.4897484860706977e-03 0.0000000000000000e+00  -1.1353372553785692e-04 -9.9805345359965138e-05 0.0000000000000000e+00  -1.2042216361133156e-04 3.6682759459317855e-03 0.0000000000000000e+00  0.0000000000000000e+00 0.0000000000000000e+00 0.0000000000000000e+00  0.0000000000000000e+00 0.0000000000000000e+00 0.0000000000000000e+00  0.0000000000000000e+00 0.0000000000000000e+00 0.0000000000000000e+00  0.0000000000000000e+00 0.0000000000000000e+00 0.0000000000000000e+00  0.0000000000000000e+00 0.0000000000000000e+00 0.0000000000000000e+00  0.0000000000000000e+00 0.0000000000000000e+00 0.0000000000000000e+00  0.0000000000000000e+00 0.0000000000000000e+00 0.0000000000000000e+00  0.0000000000000000e+00 0.0000000000000000e+00 0.0000000000000000e+00  0.0000000000000000e+00 0.0000000000000000e+00 0.0000000000000000e+00  0.0000000000000000e+00 0.0000000000000000e+00 0.0000000000000000e+00  0.0000000000000000e+00 0.0000000000000000e+00 0.0000000000000000e+00  0.0000000000000000e+00 0.0000000000000000e+00 0.0000000000000000e+00  0.0000000000000000e+00 0.0000000000000000e+00 0.0000000000000000e+00  0.0000000000000000e+00 0.0000000000000000e+00 0.0000000000000000e+00  0.0000000000000000e+00 0.0000000000000000e+00 0.0000000000000000e+00  0.0000000000000000e+00 0.0000000000000000e+00 0.0000000000000000e+00  0.0000000000000000e+00 0.0000000000000000e+00 0.0000000000000000e+00  0.0000000000000000e+00 0.0000000000000000e+00 0.0000000000000000e+00  0.0000000000000000e+00 0.0000000000000000e+00 0.0000000000000000e+00  0.0000000000000000e+00 0.0000000000000000e+00 0.0000000000000000e+00  0.0000000000000000e+00 0.0000000000000000e+00 0.0000000000000000e+00  0.0000000000000000e+00 0.0000000000000000e+00 0.0000000000000000e+00  0.0000000000000000e+00 0.0000000000000000e+00 0.0000000000000000e+00  0.0000000000000000e+00 0.0000000000000000e+00 0.0000000000000000e+00  0.0000000000000000e+00 0.0000000000000000e+00 0.0000000000000000e+00  0.0000000000000000e+00 0.0000000000000000e+00 0.0000000000000000e+00  0.0000000000000000e+00 0.0000000000000000e+00 0.0000000000000000e+00  0.0000000000000000e+00 0.0000000000000000e+00 0.0000000000000000e+00  0.0000000000000000e+00 0.0000000000000000e+00 0.0000000000000000e+00  0.0000000000000000e+00 0.0000000000000000e+00 0.0000000000000000e+00  0.0000000000000000e+00 0.0000000000000000e+00 0.0000000000000000e+00  0.0000000000000000e+00 0.0000000000000000e+00 0.0000000000000000e+00  0.0000000000000000e+00 0.0000000000000000e+00 0.0000000000000000e+00  0.0000000000000000e+00 0.0000000000000000e+00 0.0000000000000000e+00  0.0000000000000000e+00 0.0000000000000000e+00 0.0000000000000000e+00  0.0000000000000000e+00 0.0000000000000000e+00 0.0000000000000000e+00  0.0000000000000000e+00 0.0000000000000000e+00 0.0000000000000000e+00  0.0000000000000000e+00 0.0000000000000000e+00 0.0000000000000000e+00  0.0000000000000000e+00 0.0000000000000000e+00 0.0000000000000000e+00  0.0000000000000000e+00 0.0000000000000000e+00 0.0000000000000000e+00  0.0000000000000000e+00 0.0000000000000000e+00 0.0000000000000000e+00  0.0000000000000000e+00 0.0000000000000000e+00 0.0000000000000000e+00  0.0000000000000000e+00 0.0000000000000000e+00 0.0000000000000000e+00  0.0000000000000000e+00 0.0000000000000000e+00 0.0000000000000000e+00  0.0000000000000000e+00 0.0000000000000000e+00 0.0000000000000000e+00  0.0000000000000000e+00 0.0000000000000000e+00 0.0000000000000000e+00  0.0000000000000000e+00 0.0000000000000000e+00 0.0000000000000000e+00  0.0000000000000000e+00 0.0000000000000000e+00 0.0000000000000000e+00  0.0000000000000000e+00 0.0000000000000000e+00 0.0000000000000000e+00  0.0000000000000000e+00 0.0000000000000000e+00 0.0000000000000000e+00  0.0000000000000000e+00 0.0000000000000000e+00 0.0000000000000000e+00  0.0000000000000000e+00 0.0000000000000000e+00 0.0000000000000000e+00  0.0000000000000000e+00 0.0000000000000000e+00 0.0000000000000000e+00  0.0000000000000000e+00 0.0000000000000000e+00 0.0000000000000000e+00  0.0000000000000000e+00 0.0000000000000000e+00 0.0000000000000000e+00  0.0000000000000000e+00 0.0000000000000000e+00 0.0000000000000000e+00  0.0000000000000000e+00 0.0000000000000000e+00 0.0000000000000000e+00  0.0000000000000000e+00 0.0000000000000000e+00 0.0000000000000000e+00  0.0000000000000000e+00 0.0000000000000000e+00 0.0000000000000000e+00  0.0000000000000000e+00 0.0000000000000000e+00 0.0000000000000000e+00  0.0000000000000000e+00 0.0000000000000000e+00 0.0000000000000000e+00  0.0000000000000000e+00 0.0000000000000000e+00 0.0000000000000000e+00  0.0000000000000000e+00 0.0000000000000000e+00 0.0000000000000000e+00  0.0000000000000000e+00 0.0000000000000000e+00 0.0000000000000000e+00  0.0000000000000000e+00 0.0000000000000000e+00 0.0000000000000000e+00  0.0000000000000000e+00 0.0000000000000000e+00 0.0000000000000000e+00  0.0000000000000000e+00 0.0000000000000000e+00 0.0000000000000000e+00  0.0000000000000000e+00 0.0000000000000000e+00 0.0000000000000000e+00  0.0000000000000000e+00 0.0000000000000000e+00 0.0000000000000000e+00  0.0000000000000000e+00 0.0000000000000000e+00 0.0000000000000000e+00  0.0000000000000000e+00 0.0000000000000000e+00 0.0000000000000000e+00  0.0000000000000000e+00 0.0000000000000000e+00 0.0000000000000000e+00  0.0000000000000000e+00 0.0000000000000000e+00 0.0000000000000000e+00  0.0000000000000000e+00 0.0000000000000000e+00 0.0000000000000000e+00  0.0000000000000000e+00 0.0000000000000000e+00 0.0000000000000000e+00  0.0000000000000000e+00 0.0000000000000000e+00 0.0000000000000000e+00  0.0000000000000000e+00 0.0000000000000000e+00 0.0000000000000000e+00  0.0000000000000000e+00 0.0000000000000000e+00 0.0000000000000000e+00  0.0000000000000000e+00 0.0000000000000000e+00 0.0000000000000000e+00  0.0000000000000000e+00 0.0000000000000000e+00 0.0000000000000000e+00  0.0000000000000000e+00 0.0000000000000000e+00 0.0000000000000000e+00  0.0000000000000000e+00 0.0000000000000000e+00 0.0000000000000000e+00  0.0000000000000000e+00 0.0000000000000000e+00 0.0000000000000000e+00  0.0000000000000000e+00 0.0000000000000000e+00 0.0000000000000000e+00  0.0000000000000000e+00 0.0000000000000000e+00 0.0000000000000000e+00  0.0000000000000000e+00 0.0000000000000000e+00 0.0000000000000000e+00  0.0000000000000000e+00 0.0000000000000000e+00 0.0000000000000000e+00  0.0000000000000000e+00 0.0000000000000000e+00 0.0000000000000000e+00  0.0000000000000000e+00 0.0000000000000000e+00 0.0000000000000000e+00  0.0000000000000000e+00 0.0000000000000000e+00 0.0000000000000000e+00  0.0000000000000000e+00 0.0000000000000000e+00 0.0000000000000000e+00  0.0000000000000000e+00 0.0000000000000000e+00 0.0000000000000000e+00  0.0000000000000000e+00 0.0000000000000000e+00 0.0000000000000000e+00  0.0000000000000000e+00 0.0000000000000000e+00 0.0000000000000000e+00  0.0000000000000000e+00 0.0000000000000000e+00 0.0000000000000000e+00  0.0000000000000000e+00 0.0000000000000000e+00 0.0000000000000000e+00  0.0000000000000000e+00 0.0000000000000000e+00 0.0000000000000000e+00  0.0000000000000000e+00 0.0000000000000000e+00 0.0000000000000000e+00  0.0000000000000000e+00 0.0000000000000000e+00 0.0000000000000000e+00  -8.6785405738702486e-05 9.0395859079752341e-05 0.0000000000000000e+00  -1.4281231225799507e-04 1.5555557152754251e-04 0.0000000000000000e+00  -1.8856868649339768e-04 2.1074810115624814e-04 0.0000000000000000e+00  -2.2873886552813601e-04 2.6027847901220150e-04 0.0000000000000000e+00  -2.6472799722755962e-04 3.0593373273877383e-04 0.0000000000000000e+00  -2.9771072353006645e-04 3.4899881086889801e-04 0.0000000000000000e+00  -3.2862243544612749e-04 3.9010361395755796e-04 0.0000000000000000e+00  -3.5706119465751140e-04 4.2982738069865189e-04 0.0000000000000000e+00  -3.8378703032165834e-04 4.6842907299341407e-04 0.0000000000000000e+00  -4.0937836596279675e-04 5.0593473000371512e-04 0.0000000000000000e+00  -4.3359173902824121e-04 5.4277933725431526e-04 0.0000000000000000e+00  -4.5682619847811450e-04 5.7873400638528468e-04 0.0000000000000000e+00  -4.7895152555286542e-04 6.1429060863711106e-04 0.0000000000000000e+00  -5.0041166205340383e-04 6.4905639592820934e-04 0.0000000000000000e+00  -5.2106391490361543e-04 6.8349900886424512e-04 0.0000000000000000e+00  -5.4122490624631235e-04 7.1737161325459496e-04 0.0000000000000000e+00  -5.6059330569726445e-04 7.5080281495494691e-04 0.0000000000000000e+00  -5.7945077349764995e-04 7.8373374543109196e-04 0.0000000000000000e+00  -5.9790358135272117e-04 8.1640351805858100e-04 0.0000000000000000e+00  -6.1577469224198588e-04 8.4855648537642263e-04 0.0000000000000000e+00  -6.3320642329737673e-04 8.8036291201527286e-04 0.0000000000000000e+00  -6.5021513012377731e-04 9.1182110199098569e-04 0.0000000000000000e+00  -6.6682965971974137e-04 9.4288777619382818e-04 0.0000000000000000e+00  -6.8304328102273800e-04 9.7360332778297467e-04 0.0000000000000000e+00  -6.9887288189103103e-04 1.0039120718971398e-03 0.0000000000000000e+00  -7.1431683373859953e-04 1.0338438761388058e-03 0.0000000000000000e+00  -7.2939818061333963e-04 1.0633448658013626e-03 0.0000000000000000e+00  -7.4420023823405649e-04 1.0926264805063272e-03 0.0000000000000000e+00  -7.5849778580634178e-04 1.1214869286239352e-03 0.0000000000000000e+00  -7.7240694024999527e-04 1.1499783504838304e-03 0.0000000000000000e+00  -7.8594206473163333e-04 1.1781533459978319e-03 0.0000000000000000e+00  -7.9912523541749055e-04 1.2059207597748841e-03 0.0000000000000000e+00  -8.1184378725082499e-04 1.2333437856841864e-03 0.0000000000000000e+00  -8.2419821664945060e-04 1.2603641352648956e-03 0.0000000000000000e+00  -8.3612527729563595e-04 1.2871378808913838e-03 0.0000000000000000e+00  -8.4754288690254583e-04 1.3135544601760286e-03 0.0000000000000000e+00  -8.5853304869055980e-04 1.3396502442771449e-03 0.0000000000000000e+00  -8.6910497624273183e-04 1.3653296350852313e-03 0.0000000000000000e+00  -8.7912071234537642e-04 1.3907982902691201e-03 0.0000000000000000e+00  -8.8872107721042304e-04 1.4159348223889772e-03 0.0000000000000000e+00  -8.9776845494742832e-04 1.4408427827644098e-03 0.0000000000000000e+00  -9.0633508684722687e-04 1.4653785138000772e-03 0.0000000000000000e+00  -9.2144229859300142e-04 1.5125354862454967e-03 0.0000000000000000e+00  -9.2806929994869111e-04 1.5351158523296416e-03 0.0000000000000000e+00  -9.3418929453597415e-04 1.5576664983553018e-03 0.0000000000000000e+00  -9.3984042772113732e-04 1.5799870075540929e-03 0.0000000000000000e+00  -9.4501891690853125e-04 1.6023267546115031e-03 0.0000000000000000e+00  -9.4962050139248166e-04 1.6246030758672618e-03 0.0000000000000000e+00  -9.5376591114473700e-04 1.6466636788593193e-03 0.0000000000000000e+00  -9.5737947339939581e-04 1.6687375797655459e-03 0.0000000000000000e+00  -9.6048168676440328e-04 1.6908089023433327e-03 0.0000000000000000e+00  -9.6297284827335822e-04 1.7128982867038358e-03 0.0000000000000000e+00  -9.6504287640095067e-04 1.7348747224302863e-03 0.0000000000000000e+00  -9.6753860858972678e-04 1.7790305628611377e-03 0.0000000000000000e+00  -9.6800102105195826e-04 1.8011593663621436e-03 0.0000000000000000e+00  -9.6797259622273416e-04 1.8234573180929048e-03 0.0000000000000000e+00  -9.6743009515995590e-04 1.8457432587486329e-03 0.0000000000000000e+00  -9.6640782804314725e-04 1.8682575674515949e-03 0.0000000000000000e+00  -9.6488265301115700e-04 1.8909329330076064e-03 0.0000000000000000e+00  -9.6284692472976201e-04 1.9136464624907035e-03 0.0000000000000000e+00  -9.6040914063922267e-04 1.9366146363000772e-03 0.0000000000000000e+00  -9.5754923713037038e-04 1.9597987062686616e-03 0.0000000000000000e+00  -9.5415031455016192e-04 1.9831819796365586e-03 0.0000000000000000e+00  -9.5042170573920504e-04 2.0066803094139370e-03 0.0000000000000000e+00  -9.4146111140117007e-04 2.0560351658710893e-03 0.0000000000000000e+00  -9.3621857991047571e-04 2.0818841983457448e-03 0.0000000000000000e+00  -9.3061137080284321e-04 2.1081969554101942e-03 0.0000000000000000e+00  -9.2459812951629060e-04 2.1348338510419275e-03 0.0000000000000000e+00  -9.1835023032953611e-04 2.1619182727570870e-03 0.0000000000000000e+00  -9.1167047380094190e-04 2.1893480764739485e-03 0.0000000000000000e+00  -9.0476326237268277e-04 2.2172773337253309e-03 0.0000000000000000e+00  -8.9757013025321152e-04 2.2456580378427218e-03 0.0000000000000000e+00  -8.9014422319279448e-04 2.2745027309132989e-03 0.0000000000000000e+00  -8.8246022439029308e-04 2.3037440175683235e-03 0.0000000000000000e+00  -8.7468922595625295e-04 2.3334798947164869e-03 0.0000000000000000e+00  -8.6671709012826382e-04 2.3636794965412461e-03 0.0000000000000000e+00  -8.5866798215399694e-04 2.3943571290679566e-03 0.0000000000000000e+00  -8.5054465928955292e-04 2.4255200657302173e-03 0.0000000000000000e+00  -8.4235042154177497e-04 2.4571628360275789e-03 0.0000000000000000e+00  -8.3408103877884816e-04 2.4892602874048327e-03 0.0000000000000000e+00  -8.2581787487241687e-04 2.5217774491270491e-03 0.0000000000000000e+00  -8.1763557854204363e-04 2.5547857784270303e-03 0.0000000000000000e+00  -8.0952320035560703e-04 2.5882366804974026e-03 0.0000000000000000e+00  -8.0149115178360325e-04 2.6221476942391514e-03 0.0000000000000000e+00  -7.9357766506118002e-04 2.6565249378797001e-03 0.0000000000000000e+00  -7.8575907062206063e-04 2.6913566336832697e-03 0.0000000000000000e+00  -7.7819331018371719e-04 2.7265685193248197e-03 0.0000000000000000e+00  -7.7075185406107942e-04 2.7622377905089420e-03 0.0000000000000000e+00  -7.6358706678166747e-04 2.7982600562743020e-03 0.0000000000000000e+00  -7.5662450387318798e-04 2.8347226974970970e-03 0.0000000000000000e+00  -7.4993214362358441e-04 2.8715686080312353e-03 0.0000000000000000e+00  -7.4353927437793648e-04 2.9087208939567307e-03 0.0000000000000000e+00  -7.3746390639449651e-04 2.9462253237083733e-03 0.0000000000000000e+00  -7.3167258150525253e-04 2.9841393023316096e-03 0.0000000000000000e+00  -7.2629655498517509e-04 3.0222687227938563e-03 0.0000000000000000e+00  -7.2121059913512814e-04 3.0607850874933796e-03 0.0000000000000000e+00  -7.1654097539778424e-04 3.0995737814781960e-03 0.0000000000000000e+00  -7.1225197064216713e-04 3.1387279599791335e-03 0.0000000000000000e+00  -7.0837711794513494e-04 3.1780291676507286e-03 0.0000000000000000e+00  -7.0490806283791182e-04 3.2175740950063712e-03 0.0000000000000000e+00  -7.0189220219863096e-04 3.2574073215720155e-03 0.0000000000000000e+00  -6.9931590023028609e-04 3.2974005874568612e-03 0.0000000000000000e+00  -6.9719840627385657e-04 3.3376128386373941e-03 0.0000000000000000e+00  -6.9549312645440461e-04 3.3780114251675203e-03 0.0000000000000000e+00  -6.9440781074808972e-04 3.4185621114216106e-03 0.0000000000000000e+00  -6.9361274013463438e-04 3.4592151905588875e-03 0.0000000000000000e+00  -6.7562667433099428e-04 3.5000000000000001e-03 0.0000000000000000e+00  -6.5803024915605656e-04 3.4999999999999996e-03 0.0000000000000000e+00  -6.4062405223586940e-04 3.5000000000000001e-03 0.0000000000000000e+00  -6.2333465330703533e-04 3.5000000000000001e-03 0.0000000000000000e+00  -6.0610627947725690e-04 3.5000000000000001e-03 0.0000000000000000e+00  -5.8906526548440491e-04 3.5000000000000001e-03 0.0000000000000000e+00  -5.7203022286734964e-04 3.5000000000000005e-03 0.0000000000000000e+00  -5.5502673482153329e-04 3.5000000000000001e-03 0.0000000000000000e+00  -5.3802040540242902e-04 3.5000000000000001e-03 0.0000000000000000e+00  -5.2112698353778270e-04 3.5000000000000001e-03 0.0000000000000000e+00  -5.0417996863989225e-04 3.5000000000000001e-03 0.0000000000000000e+00  -4.8722749969107255e-04 3.5000000000000001e-03 0.0000000000000000e+00  -4.7026196325278513e-04 3.5000000000000001e-03 0.0000000000000000e+00  -4.5328741319959891e-04 3.5000000000000001e-03 0.0000000000000000e+00  -4.3629484096042228e-04 3.5000000000000005e-03 0.0000000000000000e+00  -4.1924502413795135e-04 3.5000000000000001e-03 0.0000000000000000e+00  -4.0216556710333376e-04 3.5000000000000001e-03 0.0000000000000000e+00  -3.8506341659074817e-04 3.5000000000000001e-03 0.0000000000000000e+00  -3.6793637059478866e-04 3.5000000000000001e-03 0.0000000000000000e+00  -3.5078436820566749e-04 3.4999999999999996e-03 0.0000000000000000e+00  -3.3361385713851947e-04 3.5000000000000001e-03 0.0000000000000000e+00  -3.1642715285882384e-04 3.5000000000000001e-03 0.0000000000000000e+00  -2.9923605901899063e-04 3.5000000000000001e-03 0.0000000000000000e+00  -2.8206153670730025e-04 3.5000000000000005e-03 0.0000000000000000e+00  -2.6488139979410495e-04 3.5000000000000001e-03 0.0000000000000000e+00  -2.4773652457573471e-04 3.5000000000000001e-03 0.0000000000000000e+00  -2.3064683308774843e-04 3.5000000000000001e-03 0.0000000000000000e+00  -2.1359341617464248e-04 3.5000000000000001e-03 0.0000000000000000e+00  -1.9665964396742169e-04 3.5000000000000001e-03 0.0000000000000000e+00  -1.7981264930932851e-04 3.5000000000000001e-03 0.0000000000000000e+00  -1.6306192991416606e-04 3.5000000000000001e-03 0.0000000000000000e+00  -1.4646497227556571e-04 3.5000000000000001e-03 0.0000000000000000e+00  -1.3000770251597385e-04 3.5000000000000001e-03 0.0000000000000000e+00  -1.1366884942942083e-04 3.5000000000000001e-03 0.0000000000000000e+00  -9.7625330573869034e-05 3.4999999999999996e-03 0.0000000000000000e+00  -8.1746078417372909e-05 3.5000000000000001e-03 0.0000000000000000e+00  -6.6106659676724969e-05 3.5000000000000001e-03 0.0000000000000000e+00  -5.0730546301429181e-05 3.5000000000000001e-03 0.0000000000000000e+00  -3.5566749183944358e-05 3.5000000000000001e-03 0.0000000000000000e+00  -2.0763201365172384e-05 3.5000000000000001e-03 0.0000000000000000e+00  -6.2971878567915782e-06 3.5000000000000001e-03 0.0000000000000000e+00  7.8013180662944823e-06 3.5000000000000001e-03 0.0000000000000000e+00  2.1593191064494678e-05 3.5000000000000001e-03 0.0000000000000000e+00  3.5064318010627497e-05 3.5000000000000001e-03 0.0000000000000000e+00  4.8038639438714248e-05 3.5000000000000001e-03 0.0000000000000000e+00  6.0701844293797541e-05 3.5000000000000005e-03 0.0000000000000000e+00  7.2958443129542488e-05 3.5000000000000001e-03 0.0000000000000000e+00  8.4632681926494221e-05 3.5000000000000001e-03 0.0000000000000000e+00  9.5945860606408244e-05 3.5000000000000001e-03 0.0000000000000000e+00  1.0688744960393089e-04 3.5000000000000001e-03 0.0000000000000000e+00  1.1734545871030414e-04 3.5000000000000001e-03 0.0000000000000000e+00  1.2726964006546380e-04 3.4999999999999996e-03 0.0000000000000000e+00  1.3674061599123385e-04 3.5000000000000001e-03 0.0000000000000000e+00  1.4581244738702355e-04 3.5000000000000001e-03 0.0000000000000000e+00  1.5436197890203495e-04 3.5000000000000001e-03 0.0000000000000000e+00  1.6243477196240810e-04 3.5000000000000001e-03 0.0000000000000000e+00  1.7008425321947076e-04 3.5000000000000001e-03 0.0000000000000000e+00  1.7732338857181761e-04 3.5000000000000001e-03 0.0000000000000000e+00  1.8398060881450346e-04 3.5000000000000001e-03 0.0000000000000000e+00  1.9029071060613025e-04 3.5000000000000001e-03 0.0000000000000000e+00  1.9613793057551826e-04 3.5000000000000001e-03 0.0000000000000000e+00  2.0156113087378688e-04 3.5000000000000001e-03 0.0000000000000000e+00  2.0652513786149446e-04 3.4999999999999996e-03 0.0000000000000000e+00  2.1117351811919522e-04 3.4999999999999996e-03 0.0000000000000000e+00  2.1545891023447061e-04 3.5000000000000001e-03 0.0000000000000000