<?xml version="1.0"?>
<VTKFile type="UnstructuredGrid"  version="0.1"  >
<UnstructuredGrid>
<Piece  NumberOfPoints="15540" NumberOfCells="30546">
<Points>
<DataArray  type="Float64"  NumberOfComponents="3"  format="ascii">0 0 0  -0.5 -0.5 0  0.5 -0.5 0  0.5 0 0  0.5 0.5 0  -0.5 0.5 0  -0.5 0.0001 0  -0.5 -0.0001 0  0.5 0.1 0  0.5 -0.1 0  -0.5 -0.1 0  -0.5 0.1 0  -0.4900000000000277 -0.5 0  -0.4800000000000555 -0.5 0  -0.4700000000000832 -0.5 0  -0.4600000000001109 -0.5 0  -0.4500000000001387 -0.5 0  -0.4400000000001664 -0.5 0  -0.4300000000001942 -0.5 0  -0.4200000000002219 -0.5 0  -0.4100000000002497 -0.5 0  -0.4000000000002774 -0.5 0  -0.3900000000003052 -0.5 0  -0.3800000000003328 -0.5 0  -0.3700000000003606 -0.5 0  -0.3600000000003883 -0.5 0  -0.3500000000004161 -0.5 0  -0.3400000000004438 -0.5 0  -0.3300000000004716 -0.5 0  -0.3200000000004993 -0.5 0  -0.3100000000005271 -0.5 0  -0.3000000000005548 -0.5 0  -0.2900000000005825 -0.5 0  -0.2800000000006103 -0.5 0  -0.2700000000006381 -0.5 0  -0.2600000000006658 -0.5 0  -0.2500000000006935 -0.5 0  -0.2400000000007212 -0.5 0  -0.230000000000749 -0.5 0  -0.2200000000007767 -0.5 0  -0.2100000000008044 -0.5 0  -0.2000000000008322 -0.5 0  -0.19000000000086 -0.5 0  -0.1800000000008877 -0.5 0  -0.1700000000009154 -0.5 0  -0.1600000000009431 -0.5 0  -0.1500000000009709 -0.5 0  -0.1400000000009986 -0.5 0  -0.1300000000010264 -0.5 0  -0.1200000000010541 -0.5 0  -0.1100000000010818 -0.5 0  -0.1000000000011096 -0.5 0  -0.09000000000113734 -0.5 0  -0.08000000000116503 -0.5 0  -0.07000000000119283 -0.5 0  -0.06000000000122058 -0.5 0  -0.05000000000124827 -0.5 0  -0.04000000000127607 -0.5 0  -0.03000000000130376 -0.5 0  -0.02000000000133151 -0.5 0  -0.01000000000135925 -0.5 0  -1.376121439022882e-12 -0.5 0  0.009999999998640763 -0.5 0  0.01999999999866864 -0.5 0  0.02999999999869629 -0.5 0  0.03999999999872406 -0.5 0  0.04999999999875182 -0.5 0  0.05999999999877947 -0.5 0  0.06999999999880724 -0.5 0  0.079999999998835 -0.5 0  0.08999999999886266 -0.5 0  0.09999999999889042 -0.5 0  0.1099999999989182 -0.5 0  0.1199999999989459 -0.5 0  0.1299999999989737 -0.5 0  0.1399999999990014 -0.5 0  0.1499999999990291 -0.5 0  0.1599999999990568 -0.5 0  0.1699999999990847 -0.5 0  0.1799999999991124 -0.5 0  0.1899999999991401 -0.5 0  0.1999999999991678 -0.5 0  0.2099999999991955 -0.5 0  0.2199999999992234 -0.5 0  0.2299999999992511 -0.5 0  0.2399999999992788 -0.5 0  0.2499999999993066 -0.5 0  0.2599999999993342 -0.5 0  0.269999999999362 -0.5 0  0.2799999999993897 -0.5 0  0.2899999999994175 -0.5 0  0.2999999999994452 -0.5 0  0.3099999999994729 -0.5 0  0.3199999999995007 -0.5 0  0.3299999999995284 -0.5 0  0.3399999999995562 -0.5 0  0.3499999999995839 -0.5 0  0.3599999999996116 -0.5 0  0.3699999999996393 -0.5 0  0.379999999999667 -0.5 0  0.3899999999996949 -0.5 0  0.3999999999997226 -0.5 0  0.4099999999997503 -0.5 0  0.419999999999778 -0.5 0  0.4299999999998058 -0.5 0  0.4399999999998336 -0.5 0  0.4499999999998613 -0.5 0  0.4599999999998891 -0.5 0  0.4699999999999167 -0.5 0  0.4799999999999445 -0.5 0  0.4899999999999722 -0.5 0  0.5 -0.4902110204681464 0  0.5 -0.4804459958734807 0  0.5 -0.4707048677450883 0  0.5 -0.4609875815766065 0  0.5 -0.4512940759251849 0  0.5 -0.4416242912883993 0  0.5 -0.4319781678689807 0  0.5 -0.4223556545383647 0  0.5 -0.4127566896324213 0  0.5 -0.4031812128200121 0  0.5 -0.3936291733057916 0  0.5 -0.3841005081172659 0  0.5 -0.3745951585781932 0  0.5 -0.3651130778999337 0  0.5 -0.3556541993788045 0  0.5 -0.3462184677228392 0  0.5 -0.3368058273705318 0  0.5 -0.3274162224888609 0  0.5 -0.3180495969712945 0  0.5 -0.3087058944357755 0  0.5 -0.299385058222682 0  0.5 -0.2900870313927414 0  0.5 -0.2808117567250807 0  0.5 -0.2715591844628491 0  0.5 -0.2623292564012653 0  0.5 -0.253121909553727 0  0.5 -0.2439371050851549 0  0.5 -0.2347747685524501 0  0.5 -0.2256348634421331 0  0.5 -0.2165173209784076 0  0.5 -0.207422087829958 0  0.5 -0.1983491207029381 0  0.5 -0.1892983550950482 0  0.5 -0.1802697378305253 0  0.5 -0.1712632154965152 0  0.5 -0.1622787344187354 0  0.5 -0.1533162406595534 0  0.5 -0.1443756800160514 0  0.5 -0.1354569980180493 0  0.5 -0.1265601399261414 0  0.5 -0.1176850622761093 0  0.5 -0.1088317009011999 0  0.5 -0.09166666666668973 0  0.5 -0.08333333333337943 0  0.5 -0.07500000000006915 0  0.5 -0.06666666666675886 0  0.5 -0.05833333333344858 0  0.5 -0.05000000000013693 0  0.5 -0.04166666666678191 0  0.5 -0.03333333333342643 0  0.5 -0.02500000000006916 0  0.5 -0.01666666666671188 0  0.5 -0.00833333333335548 0  0.5 0.008333333333318314 0  0.5 0.01666666666663358 0  0.5 0.02499999999994162 0  0.5 0.03333333333325101 0  0.5 0.04166666666655769 0  0.5 0.04999999999986843 0  0.5 0.05833333333322258 0  0.5 0.06666666666657715 0  0.5 0.07499999999993352 0  0.5 0.08333333333328992 0  0.5 0.09166666666664541 0  0.5 0.1088317009011616 0  0.5 0.1176850622760307 0  0.5 0.1265601399260203 0  0.5 0.1354569980178909 0  0.5 0.1443756800158549 0  0.5 0.153316240659315 0  0.5 0.1622787344184454 0  0.5 0.1712632154961752 0  0.5 0.1802697378301332 0  0.5 0.1892983550946039 0  0.5 0.1983491207024433 0  0.5 0.2074220878294123 0  0.5 0.216517320977811 0  0.5 0.2256348634414833 0  0.5 0.2347747685517479 0  0.5 0.2439371050844009 0  0.5 0.2531219095529224 0  0.5 0.2623292564004089 0  0.5 0.2715591844619371 0  0.5 0.2808117567241139 0  0.5 0.290087031391723 0  0.5 0.2993850582216101 0  0.5 0.3087058944347426 0  0.5 0.3180495969703129 0  0.5 0.3274162224879299 0  0.5 0.3368058273696494 0  0.5 0.3462184677220051 0  0.5 0.3556541993780186 0  0.5 0.3651130778991989 0  0.5 0.3745951585775107 0  0.5 0.3841005081166359 0  0.5 0.3936291733052134 0  0.5 0.4031812128194852 0  0.5 0.412756689631945 0  0.5 0.4223556545379392 0  0.5 0.431978167868607 0  0.5 0.4416242912880781 0  0.5 0.4512940759249164 0  0.5 0.4609875815763912 0  0.5 0.4707048677449264 0  0.5 0.4804459958733726 0  0.5 0.4902110204680924 0  0.4900000000000277 0.5 0  0.4800000000000555 0.5 0  0.4700000000000832 0.5 0  0.4600000000001109 0.5 0  0.4500000000001387 0.5 0  0.4400000000001664 0.5 0  0.4300000000001942 0.5 0  0.4200000000002219 0.5 0  0.4100000000002497 0.5 0  0.4000000000002774 0.5 0  0.3900000000003052 0.5 0  0.3800000000003328 0.5 0  0.3700000000003606 0.5 0  0.3600000000003883 0.5 0  0.3500000000004161 0.5 0  0.3400000000004438 0.5 0  0.3300000000004716 0.5 0  0.3200000000004993 0.5 0  0.3100000000005271 0.5 0  0.3000000000005548 0.5 0  0.2900000000005825 0.5 0  0.2800000000006103 0.5 0  0.2700000000006381 0.5 0  0.2600000000006658 0.5 0  0.2500000000006935 0.5 0  0.2400000000007212 0.5 0  0.230000000000749 0.5 0  0.2200000000007767 0.5 0  0.2100000000008044 0.5 0  0.2000000000008322 0.5 0  0.19000000000086 0.5 0  0.1800000000008877 0.5 0  0.1700000000009154 0.5 0  0.1600000000009431 0.5 0  0.1500000000009709 0.5 0  0.1400000000009986 0.5 0  0.1300000000010264 0.5 0  0.1200000000010541 0.5 0  0.1100000000010818 0.5 0  0.1000000000011096 0.5 0  0.09000000000113734 0.5 0  0.08000000000116503 0.5 0  0.07000000000119283 0.5 0  0.06000000000122058 0.5 0  0.05000000000124827 0.5 0  0.04000000000127607 0.5 0  0.03000000000130376 0.5 0  0.02000000000133151 0.5 0  0.01000000000135925 0.5 0  1.376121439022882e-12 0.5 0  -0.009999999998640763 0.5 0  -0.01999999999866864 0.5 0  -0.02999999999869629 0.5 0  -0.03999999999872406 0.5 0  -0.04999999999875182 0.5 0  -0.05999999999877947 0.5 0  -0.06999999999880724 0.5 0  -0.079999999998835 0.5 0  -0.08999999999886266 0.5 0  -0.09999999999889042 0.5 0  -0.1099999999989182 0.5 0  -0.1199999999989459 0.5 0  -0.1299999999989737 0.5 0  -0.1399999999990014 0.5 0  -0.1499999999990291 0.5 0  -0.1599999999990568 0.5 0  -0.1699999999990847 0.5 0  -0.1799999999991124 0.5 0  -0.1899999999991401 0.5 0  -0.1999999999991678 0.5 0  -0.2099999999991955 0.5 0  -0.2199999999992234 0.5 0  -0.2299999999992511 0.5 0  -0.2399999999992788 0.5 0  -0.2499999999993066 0.5 0  -0.2599999999993342 0.5 0  -0.269999999999362 0.5 0  -0.2799999999993897 0.5 0  -0.2899999999994175 0.5 0  -0.2999999999994452 0.5 0  -0.3099999999994729 0.5 0  -0.3199999999995007 0.5 0  -0.3299999999995284 0.5 0  -0.3399999999995562 0.5 0  -0.3499999999995839 0.5 0  -0.3599999999996116 0.5 0  -0.3699999999996393 0.5 0  -0.379999999999667 0.5 0  -0.3899999999996949 0.5 0  -0.3999999999997226 0.5 0  -0.4099999999997503 0.5 0  -0.419999999999778 0.5 0  -0.4299999999998058 0.5 0  -0.4399999999998336 0.5 0  -0.4499999999998613 0.5 0  -0.4599999999998891 0.5 0  -0.4699999999999167 0.5 0  -0.4799999999999445 0.5 0  -0.4899999999999722 0.5 0  -0.5 0.4902110204681464 0  -0.5 0.4804459958734807 0  -0.5 0.4707048677450883 0  -0.5 0.4609875815766065 0  -0.5 0.4512940759251849 0  -0.5 0.4416242912883993 0  -0.5 0.4319781678689807 0  -0.5 0.4223556545383647 0  -0.5 0.4127566896324213 0  -0.5 0.4031812128200121 0  -0.5 0.3936291733057916 0  -0.5 0.3841005081172659 0  -0.5 0.3745951585781932 0  -0.5 0.3651130778999337 0  -0.5 0.3556541993788045 0  -0.5 0.3462184677228392 0  -0.5 0.3368058273705318 0  -0.5 0.3274162224888609 0  -0.5 0.3180495969712945 0  -0.5 0.3087058944357755 0  -0.5 0.299385058222682 0  -0.5 0.2900870313927414 0  -0.5 0.2808117567250807 0  -0.5 0.2715591844628491 0  -0.5 0.2623292564012653 0  -0.5 0.253121909553727 0  -0.5 0.2439371050851549 0  -0.5 0.2347747685524501 0  -0.5 0.2256348634421331 0  -0.5 0.2165173209784076 0  -0.5 0.207422087829958 0  -0.5 0.1983491207029381 0  -0.5 0.1892983550950482 0  -0.5 0.1802697378305253 0  -0.5 0.1712632154965152 0  -0.5 0.1622787344187354 0  -0.5 0.1533162406595534 0  -0.5 0.1443756800160514 0  -0.5 0.1354569980180493 0  -0.5 0.1265601399261414 0  -0.5 0.1176850622761093 0  -0.5 0.1088317009011999 0  -0.5 0.09167500000001694 0  -0.5 0.08335000000003931 0  -0.5 0.07502500000006167 0  -0.5 0.06670000000008947 0  -0.5 0.05837500000011001 0  -0.5 0.0500500000001328 0  -0.5 0.0417250000001127 0  -0.5 0.03340000000008944 0  -0.5 0.02507500000006573 0  -0.5 0.01675000000004653 0  -0.5 0.008425000000027341 
[...]
<PointData  Vectors="f_20"> 
<DataArray  type="Float64"  Name="f_20"  NumberOfComponents="3" format="ascii">-7.7644279028136128e-06 8.3492322314236993e-05 0.0000000000000000e+00  0.0000000000000000e+00 0.0000000000000000e+00 0.0000000000000000e+00  0.0000000000000000e+00 0.0000000000000000e+00 0.0000000000000000e+00  -6.3776864753256314e-05 6.5893943885503517e-05 0.0000000000000000e+00  9.4807963619671892e-05 6.2999999999999983e-03 0.0000000000000000e+00  1.0264337695127021e-04 6.2999999999999992e-03 0.0000000000000000e+00  9.8647138329091081e-05 6.3014207994396406e-03 0.0000000000000000e+00  -1.7644169936948700e-06 -8.9260438160810586e-07 0.0000000000000000e+00  8.9311595593331896e-05 6.2819036037563385e-03 0.0000000000000000e+00  -1.0762127193863079e-05 1.7809910050921694e-05 0.0000000000000000e+00  -1.0783765292295284e-06 -8.8513959466801609e-07 0.0000000000000000e+00  9.9697795122890697e-05 6.3014155830556726e-03 0.0000000000000000e+00  0.0000000000000000e+00 0.0000000000000000e+00 0.0000000000000000e+00  0.0000000000000000e+00 0.0000000000000000e+00 0.0000000000000000e+00  0.0000000000000000e+00 0.0000000000000000e+00 0.0000000000000000e+00  0.0000000000000000e+00 0.0000000000000000e+00 0.0000000000000000e+00  0.0000000000000000e+00 0.0000000000000000e+00 0.0000000000000000e+00  0.0000000000000000e+00 0.0000000000000000e+00 0.0000000000000000e+00  0.0000000000000000e+00 0.0000000000000000e+00 0.0000000000000000e+00  0.0000000000000000e+00 0.0000000000000000e+00 0.0000000000000000e+00  0.0000000000000000e+00 0.0000000000000000e+00 0.0000000000000000e+00  0.0000000000000000e+00 0.0000000000000000e+00 0.0000000000000000e+00  0.0000000000000000e+00 0.0000000000000000e+00 0.0000000000000000e+00  0.0000000000000000e+00 0.0000000000000000e+00 0.0000000000000000e+00  0.0000000000000000e+00 0.0000000000000000e+00 0.0000000000000000e+00  0.0000000000000000e+00 0.0000000000000000e+00 0.0000000000000000e+00  0.0000000000000000e+00 0.0000000000000000e+00 0.0000000000000000e+00  0.0000000000000000e+00 0.0000000000000000e+00 0.0000000000000000e+00  0.0000000000000000e+00 0.0000000000000000e+00 0.0000000000000000e+00  0.0000000000000000e+00 0.0000000000000000e+00 0.0000000000000000e+00  0.0000000000000000e+00 0.0000000000000000e+00 0.0000000000000000e+00  0.0000000000000000e+00 0.0000000000000000e+00 0.0000000000000000e+00  0.0000000000000000e+00 0.0000000000000000e+00 0.0000000000000000e+00  0.0000000000000000e+00 0.0000000000000000e+00 0.0000000000000000e+00  0.0000000000000000e+00 0.0000000000000000e+00 0.0000000000000000e+00  0.0000000000000000e+00 0.0000000000000000e+00 0.0000000000000000e+00  0.0000000000000000e+00 0.0000000000000000e+00 0.0000000000000000e+00  0.0000000000000000e+00 0.0000000000000000e+00 0.0000000000000000e+00  0.0000000000000000e+00 0.0000000000000000e+00 0.0000000000000000e+00  0.0000000000000000e+00 0.0000000000000000e+00 0.0000000000000000e+00  0.0000000000000000e+00 0.0000000000000000e+00 0.0000000000000000e+00  0.0000000000000000e+00 0.0000000000000000e+00 0.0000000000000000e+00  0.0000000000000000e+00 0.0000000000000000e+00 0.0000000000000000e+00  0.0000000000000000e+00 0.0000000000000000e+00 0.0000000000000000e+00  0.0000000000000000e+00 0.0000000000000000e+00 0.0000000000000000e+00  0.0000000000000000e+00 0.0000000000000000e+00 0.0000000000000000e+00  0.0000000000000000e+00 0.0000000000000000e+00 0.0000000000000000e+00  0.0000000000000000e+00 0.0000000000000000e+00 0.0000000000000000e+00  0.0000000000000000e+00 0.0000000000000000e+00 0.0000000000000000e+00  0.0000000000000000e+00 0.0000000000000000e+00 0.0000000000000000e+00  0.0000000000000000e+00 0.0000000000000000e+00 0.0000000000000000e+00  0.0000000000000000e+00 0.0000000000000000e+00 0.0000000000000000e+00  0.0000000000000000e+00 0.0000000000000000e+00 0.0000000000000000e+00  0.0000000000000000e+00 0.0000000000000000e+00 0.0000000000000000e+00  0.0000000000000000e+00 0.0000000000000000e+00 0.0000000000000000e+00  0.0000000000000000e+00 0.0000000000000000e+00 0.0000000000000000e+00  0.0000000000000000e+00 0.0000000000000000e+00 0.0000000000000000e+00  0.0000000000000000e+00 0.0000000000000000e+00 0.0000000000000000e+00  0.0000000000000000e+00 0.0000000000000000e+00 0.0000000000000000e+00  0.0000000000000000e+00 0.0000000000000000e+00 0.0000000000000000e+00  0.0000000000000000e+00 0.0000000000000000e+00 0.0000000000000000e+00  0.0000000000000000e+00 0.0000000000000000e+00 0.0000000000000000e+00  0.0000000000000000e+00 0.0000000000000000e+00 0.0000000000000000e+00  0.0000000000000000e+00 0.0000000000000000e+00 0.0000000000000000e+00  0.0000000000000000e+00 0.0000000000000000e+00 0.0000000000000000e+00  0.0000000000000000e+00 0.0000000000000000e+00 0.0000000000000000e+00  0.0000000000000000e+00 0.0000000000000000e+00 0.0000000000000000e+00  0.0000000000000000e+00 0.0000000000000000e+00 0.0000000000000000e+00  0.0000000000000000e+00 0.0000000000000000e+00 0.0000000000000000e+00  0.0000000000000000e+00 0.0000000000000000e+00 0.0000000000000000e+00  0.0000000000000000e+00 0.0000000000000000e+00 0.0000000000000000e+00  0.0000000000000000e+00 0.0000000000000000e+00 0.0000000000000000e+00  0.0000000000000000e+00 0.0000000000000000e+00 0.0000000000000000e+00  0.0000000000000000e+00 0.0000000000000000e+00 0.0000000000000000e+00  0.0000000000000000e+00 0.0000000000000000e+00 0.0000000000000000e+00  0.0000000000000000e+00 0.0000000000000000e+00 0.0000000000000000e+00  0.0000000000000000e+00 0.0000000000000000e+00 0.0000000000000000e+00  0.0000000000000000e+00 0.0000000000000000e+00 0.0000000000000000e+00  0.0000000000000000e+00 0.0000000000000000e+00 0.0000000000000000e+00  0.0000000000000000e+00 0.0000000000000000e+00 0.0000000000000000e+00  0.0000000000000000e+00 0.0000000000000000e+00 0.0000000000000000e+00  0.0000000000000000e+00 0.0000000000000000e+00 0.0000000000000000e+00  0.0000000000000000e+00 0.0000000000000000e+00 0.0000000000000000e+00  0.0000000000000000e+00 0.0000000000000000e+00 0.0000000000000000e+00  0.0000000000000000e+00 0.0000000000000000e+00 0.0000000000000000e+00  0.0000000000000000e+00 0.0000000000000000e+00 0.0000000000000000e+00  0.0000000000000000e+00 0.0000000000000000e+00 0.0000000000000000e+00  0.0000000000000000e+00 0.0000000000000000e+00 0.0000000000000000e+00  0.0000000000000000e+00 0.0000000000000000e+00 0.0000000000000000e+00  0.0000000000000000e+00 0.0000000000000000e+00 0.0000000000000000e+00  0.0000000000000000e+00 0.0000000000000000e+00 0.0000000000000000e+00  0.0000000000000000e+00 0.0000000000000000e+00 0.0000000000000000e+00  0.0000000000000000e+00 0.0000000000000000e+00 0.0000000000000000e+00  0.0000000000000000e+00 0.0000000000000000e+00 0.0000000000000000e+00  0.0000000000000000e+00 0.0000000000000000e+00 0.0000000000000000e+00  0.0000000000000000e+00 0.0000000000000000e+00 0.0000000000000000e+00  0.0000000000000000e+00 0.0000000000000000e+00 0.0000000000000000e+00  0.0000000000000000e+00 0.0000000000000000e+00 0.0000000000000000e+00  0.0000000000000000e+00 0.0000000000000000e+00 0.0000000000000000e+00  0.0000000000000000e+00 0.0000000000000000e+00 0.0000000000000000e+00  0.0000000000000000e+00 0.0000000000000000e+00 0.0000000000000000e+00  0.0000000000000000e+00 0.0000000000000000e+00 0.0000000000000000e+00  0.0000000000000000e+00 0.0000000000000000e+00 0.0000000000000000e+00  0.0000000000000000e+00 0.0000000000000000e+00 0.0000000000000000e+00  0.0000000000000000e+00 0.0000000000000000e+00 0.0000000000000000e+00  0.0000000000000000e+00 0.0000000000000000e+00 0.0000000000000000e+00  0.0000000000000000e+00 0.0000000000000000e+00 0.0000000000000000e+00  0.0000000000000000e+00 0.0000000000000000e+00 0.0000000000000000e+00  0.0000000000000000e+00 0.0000000000000000e+00 0.0000000000000000e+00  0.0000000000000000e+00 0.0000000000000000e+00 0.0000000000000000e+00  0.0000000000000000e+00 0.0000000000000000e+00 0.0000000000000000e+00  -7.8908138488747698e-07 8.2884841572919773e-07 0.0000000000000000e+00  -1.2955568872494433e-06 1.4349628001560330e-06 0.0000000000000000e+00  -1.7084289332692307e-06 1.9545356874192864e-06 0.0000000000000000e+00  -2.0685296173427061e-06 2.4294092845729735e-06 0.0000000000000000e+00  -2.3905697079891117e-06 2.8737922831414469e-06 0.0000000000000000e+00  -2.6849029030155367e-06 3.2990613112126284e-06 0.0000000000000000e+00  -2.9601156717909717e-06 3.7102467040119907e-06 0.0000000000000000e+00  -3.2133400494639531e-06 4.1128192599234602e-06 0.0000000000000000e+00  -3.4519766652781094e-06 4.5084431584613204e-06 0.0000000000000000e+00  -3.6807508832202953e-06 4.8971111908034576e-06 0.0000000000000000e+00  -3.8983399735022453e-06 5.2825862252323440e-06 0.0000000000000000e+00  -4.1082065809203204e-06 5.6633010409838525e-06 0.0000000000000000e+00  -4.3101696098911981e-06 6.0426209182134983e-06 0.0000000000000000e+00  -4.5073170332760848e-06 6.4181642967817969e-06 0.0000000000000000e+00  -4.6994937994813524e-06 6.7928289463960398e-06 0.0000000000000000e+00  -4.8884406133645142e-06 7.1654866377759601e-06 0.0000000000000000e+00  -5.0735958283886667e-06 7.5369138468053397e-06 0.0000000000000000e+00  -5.2565971348662460e-06 7.9072253693832819e-06 0.0000000000000000e+00  -5.4378757584412580e-06 8.2770649821680642e-06 0.0000000000000000e+00  -5.6177736508114293e-06 8.6462617991844564e-06 0.0000000000000000e+00  -5.7969509633671056e-06 9.0152529460776603e-06 0.0000000000000000e+00  -5.9758957127600032e-06 9.3840995130578777e-06 0.0000000000000000e+00  -6.1550976535097626e-06 9.7530844540077228e-06 0.0000000000000000e+00  -6.3350220802407352e-06 1.0122222506944355e-05 0.0000000000000000e+00  -6.5160460795906419e-06 1.0492001248797822e-05 0.0000000000000000e+00  -6.6987710673542117e-06 1.0862695867113533e-05 0.0000000000000000e+00  -6.8835936345740173e-06 1.1234945859986717e-05 0.0000000000000000e+00  -7.0696673566229512e-06 1.1607274484998630e-05 0.0000000000000000e+00  -7.2598187433041901e-06 1.1981920547006392e-05 0.0000000000000000e+00  -7.4537091669880291e-06 1.2358687597760790e-05 0.0000000000000000e+00  -7.6517572464206148e-06 1.2737050783262444e-05 0.0000000000000000e+00  -7.8539828829320336e-06 1.3119075874268347e-05 0.0000000000000000e+00  -8.0627725155307589e-06 1.3504468772909014e-05 0.0000000000000000e+00  -8.2774312214949224e-06 1.3895179805771224e-05 0.0000000000000000e+00  -8.4988956474876284e-06 1.4288846651620288e-05 0.0000000000000000e+00  -8.7311724636264555e-06 1.4689101559252247e-05 0.0000000000000000e+00  -8.9728951533959758e-06 1.5096112925117222e-05 0.0000000000000000e+00  -9.2252284839182873e-06 1.5514766120447055e-05 0.0000000000000000e+00  -9.4937244292843437e-06 1.5940510084269487e-05 0.0000000000000000e+00  -9.7762989489730857e-06 1.6380126267949498e-05 0.0000000000000000e+00  -1.0081094795339261e-05 1.6834634667976402e-05 0.0000000000000000e+00  -1.0408622564082566e-05 1.7313433160048684e-05 0.0000000000000000e+00  -1.1136914348451870e-05 1.8314696732470486e-05 0.0000000000000000e+00  -1.1550074015430433e-05 1.8863972091275824e-05 0.0000000000000000e+00  -1.2016844620933728e-05 1.9449005708178731e-05 0.0000000000000000e+00  -1.2557269850406640e-05 2.0126434927514966e-05 0.0000000000000000e+00  -1.3170482038758135e-05 2.0864418218544660e-05 0.0000000000000000e+00  -1.3945151765104425e-05 2.1729133945707524e-05 0.0000000000000000e+00  -1.4906017262101842e-05 2.2882525295247633e-05 0.0000000000000000e+00  -1.6237823432202012e-05 2.4350444594263727e-05 0.0000000000000000e+00  -1.8174280607853826e-05 2.6336837687710383e-05 0.0000000000000000e+00  -2.1446153316291785e-05 2.9786430901643562e-05 0.0000000000000000e+00  -2.9998959267319092e-05 3.7883487204673926e-05 0.0000000000000000e+00  1.5541350822083316e-06 6.2067632471265654e-03 0.0000000000000000e+00  6.9283786569226060e-05 6.2598138432104471e-03 0.0000000000000000e+00  7.8085590091499490e-05 6.2690952381608718e-03 0.0000000000000000e+00  8.2037049848432051e-05 6.2733314583185134e-03 0.0000000000000000e+00  8.4127767978534014e-05 6.2756244259259625e-03 0.0000000000000000e+00  8.5478175838686341e-05 6.2771097333058027e-03 0.0000000000000000e+00  8.6471880426273938e-05 6.2783166068810237e-03 0.0000000000000000e+00  8.7260627095649037e-05 6.2792503194384333e-03 0.0000000000000000e+00  8.7905286476319534e-05 6.2800334778359843e-03 0.0000000000000000e+00  8.8427645412207252e-05 6.2807056985466157e-03 0.0000000000000000e+00  8.8901242623768700e-05 6.2813364435873259e-03 0.0000000000000000e+00  8.9689664110437000e-05 6.2824523627368484e-03 0.0000000000000000e+00  9.0033178109847316e-05 6.2829783748148465e-03 0.0000000000000000e+00  9.0346157411596255e-05 6.2834731791277841e-03 0.0000000000000000e+00  9.0630014233740913e-05 6.2839489085217666e-03 0.0000000000000000e+00  9.0894756151088684e-05 6.2844077209711349e-03 0.0000000000000000e+00  9.1138536368209606e-05 6.2848584130259007e-03 0.0000000000000000e+00  9.1367446435226455e-05 6.2852950860952661e-03 0.0000000000000000e+00  9.1583578358197441e-05 6.2857240904702757e-03 0.0000000000000000e+00  9.1784397735776200e-05 6.2861455247739482e-03 0.0000000000000000e+00  9.1975654777573049e-05 6.2865643577580798e-03 0.0000000000000000e+00  9.2157513500215255e-05 6.2869772446109435e-03 0.0000000000000000e+00  9.2329472344916113e-05 6.2873868789362795e-03 0.0000000000000000e+00  9.2493973907447130e-05 6.2877925300287400e-03 0.0000000000000000e+00  9.2650982552361795e-05 6.2881974039239608e-03 0.0000000000000000e+00  9.2800891393907546e-05 6.2886005071990155e-03 0.0000000000000000e+00  9.2942263450659094e-05 6.2890009271158089e-03 0.0000000000000000e+00  9.3079661798039582e-05 6.2894027636613533e-03 0.0000000000000000e+00  9.3210741599282916e-05 6.2898030948244470e-03 0.0000000000000000e+00  9.3335809014805126e-05 6.2902027730861324e-03 0.0000000000000000e+00  9.3455382117399604e-05 6.2906020013441507e-03 0.0000000000000000e+00  9.3569574163352467e-05 6.2910018110738609e-03 0.0000000000000000e+00  9.3679024328050745e-05 6.2914019986979744e-03 0.0000000000000000e+00  9.3782561482660284e-05 6.2918025465255566e-03 0.0000000000000000e+00  9.3881691956772023e-05 6.2922042976252248e-03 0.0000000000000000e+00  9.3974517297392684e-05 6.2926052201398470e-03 0.0000000000000000e+00  9.4063676144787211e-05 6.2930084618888086e-03 0.0000000000000000e+00  9.4147774648230454e-05 6.2934120013077646e-03 0.0000000000000000e+00  9.4226055937627471e-05 6.2938160555731518e-03 0.0000000000000000e+00  9.4300048767133224e-05 6.2942204849722070e-03 0.0000000000000000e+00  9.4369200949649164e-05 6.2946272445970185e-03 0.0000000000000000e+00  9.4433216967095205e-05 6.2950333556624494e-03 0.0000000000000000e+00  9.4492430733029379e-05 6.2954417897274515e-03 0.0000000000000000e+00  9.4546462296624253e-05 6.2958506786509483e-03 0.0000000000000000e+00  9.4595428264919755e-05 6.2962616840545006e-03 0.0000000000000000e+00  9.4639663225336439e-05 6.2966725323583507e-03 0.0000000000000000e+00  9.4678738764612490e-05 6.2970844390884189e-03 0.0000000000000000e+00  9.4712470062377745e-05 6.2974980203600152e-03 0.0000000000000000e+00  9.4741342624353293e-05 6.2979121523459988e-03 0.0000000000000000e+00  9.4764920137243758e-05 6.2983276144373598e-03 0.0000000000000000e+00  9.4783739156959100e-05 6.2987442931452114e-03 0.0000000000000000e+00  9.4795637213834327e-05 6.2991620236177420e-03 0.0000000000000000e+00  9.4804407200163151e-05 6.2995804596653309e-03 0.0000000000000000e+00  9.4989441534645646e-05 6.2999999999999992e-03 0.0000000000000000e+00  9.5169871040805804e-05 6.2999999999999992e-03 0.0000000000000000e+00  9.5347590702524594e-05 6.2999999999999992e-03 0.0000000000000000e+00  9.5523143699732845e-05 6.2999999999999983e-03 0.0000000000000000e+00  9.5697055836867033e-05 6.2999999999999992e-03 0.0000000000000000e+00  9.5867329878477774e-05 6.2999999999999992e-03 0.0000000000000000e+00  9.6036239391277743e-05 6.2999999999999992e-03 0.0000000000000000e+00  9.6203225537351707e-05 6.2999999999999992e-03 0.0000000000000000e+00  9.6368523219873036e-05 6.2999999999999992e-03 0.0000000000000000e+00  9.6530357455456577e-05 6.2999999999999992e-03 0.0000000000000000e+00  9.6691279261425792e-05 6.2999999999999992e-03 0.0000000000000000e+00  9.6850174469127862e-05 6.2999999999999992e-03 0.0000000000000000e+00  9.7007173182806598e-05 6.2999999999999992e-03 0.0000000000000000e+00  9.7162033124150100e-05 6.2999999999999992e-03 0.0000000000000000e+00  9.7315075854004378e-05 6.2999999999999992e-03 0.0000000000000000e+00  9.7467098572042490e-05 6.3000000000000000e-03 0.0000000000000000e+00  9.7617591479141243e-05 6.2999999999999992e-03 0.0000000000000000e+00  9.7766256436949758e-05 6.2999999999999992e-03 0.0000000000000000e+00  9.7913332991976870e-05 6.2999999999999992e-03 0.0000000000000000e+00  9.8059168775851263e-05 6.3000000000000000e-03 0.0000000000000000e+00  9.8203574702343597e-05 6.2999999999999992e-03 0.0000000000000000e+00  9.8346698835896550e-05 6.2999999999999992e-03 0.0000000000000000e+00  9.8488557272511892e-05 6.3000000000000000e-03 0.0000000000000000e+00  9.8629009813835515e-05 6.2999999999999992e-03 0.0000000000000000e+00  9.8768509146168491e-05 6.2999999999999992e-03 0.0000000000000000e+00  9.8906645166221165e-05 6.2999999999999992e-03 0.0000000000000000e+00  9.9043392452248603e-05 6.2999999999999992e-03 0.0000000000000000e+00  9.9179134491092112e-05 6.2999999999999992e-03 0.0000000000000000e+00  9.9313028972712077e-05 6.2999999999999992e-03 0.0000000000000000e+00  9.9445658499862461e-05 6.2999999999999992e-03 0.0000000000000000e+00  9.9577045985914199e-05 6.2999999999999992e-03 0.0000000000000000e+00  9.9706721039474652e-05 6.2999999999999983e-03 0.0000000000000000e+00  9.9834992041777251e-05 6.2999999999999992e-03 0.0000000000000000e+00  9.9962185235610273e-05 6.2999999999999992e-03 0.0000000000000000e+00  1.0008660404606179e-04 6.2999999999999992e-03 0.0000000000000000e+00  1.0020974994723896e-04 6.2999999999999992e-03 0.0000000000000000e+00  1.0033097534473099e-04 6.2999999999999992e-03 0.0000000000000000e+00  1.0045012250268442e-04 6.3000000000000000e-03 0.0000000000000000e+00  1.0056776399387942e-04 6.2999999999999992e-03 0.0000000000000000e+00  1.0068253569079491e-04 6.2999999999999992e-03 0.0000000000000000e+00  1.0079481825741267e-04 6.2999999999999992e-03 0.0000000000000000e+00  1.0090441686903825e-04 6.2999999999999992e-03 0.0000000000000000e+00  1.0101187825728485e-04 6.2999999999999992e-03 0.0000000000000000e+00  1.0111704904923938e-04 6.3000000000000000e-03 0.0000000000000000e+00  1.0121855376746699e-04 6.2999999999999992e-03 0.0000000000000000e+00  1.0131793121021256e-04 6.2999999999999992e-03 0.0000000000000000e+00  1.0141445741956803e-04 6.2999999999999992e-03 0.0000000000000000e+00  1.0150655410609507e-04 6.2999999999999983e-03 0.0000000000000000e+00  1.0159615355011991e-04 6.2999999999999992e-03 0.0000000000000000e+00  1.0168315593128509e-04 6.2999999999999992e-03 0.0000000000000000e+00  1.0176660497369708e-04 6.2999999999999992e-03 0.0000000000000000e+00  1.0184611051757868e-04 6.2999999999999992e-03 0.0000000000000000e+00  1.0192231755739090e-04 6.2999999999999992e-03 0.0000000000000000e+00  1.0199568324817550e-04 6.2999999999999992e-03 0.0000000000000000e+00  1.0206504508874400e-04 6.2999999999999992e-03 0.0000000000000000e+00  1.0213090462167466e-04 6.2999999999999983e-03 0.0000000000000000e+00  1.0219359446745220e-04 6.2999999999999983e-03 0.0000000000000000e+00  1.0225323437986151e-04 6.2999999999999992e-03 0.0000000000000000e+00  1.0230840209643358e-04 6.2999999999999992e-03 0.0000000000000000e+00  1.0236094912183129e-04 6.2999999999999992e-03 0.0000000000000000e+00  1.0240993507588322e-04 6.2999999999999992e-03 0.0000000000000000e+00  1.0245563820434212e-04 6.2999999999999992e-03 0.0000000000000000e+00  1.0249776540183645e-04 6.2999999999999992e-03 0.0000000000000000e+00  1.0253744306811977e-04 6.2999999999999992e-03 0.0000000000000000e+00  1.0257427753925812e-04 6.2999999999999992e-03 0.0000000000000000e+00  1.0260801400322525e-04 6.2999999999999992e-03 0.0000000000000000e+00  1.0263861777357443e-04