<?xml version="1.0"?>
<VTKFile type="UnstructuredGrid"  version="0.1"  >
<UnstructuredGrid>
<Piece  NumberOfPoints="15540" NumberOfCells="30546">
<Points>
<DataArray  type="Float64"  NumberOfComponents="3"  format="ascii">0 0 0  -0.5 -0.5 0  0.5 -0.5 0  0.5 0 0  0.5 0.5 0  -0.5 0.5 0  -0.5 0.0001 0  -0.5 -0.0001 0  0.5 0.1 0  0.5 -0.1 0  -0.5 -0.1 0  -0.5 0.1 0  -0.4900000000000277 -0.5 0  -0.4800000000000555 -0.5 0  -0.4700000000000832 -0.5 0  -0.4600000000001109 -0.5 0  -0.4500000000001387 -0.5 0  -0.4400000000001664 -0.5 0  -0.4300000000001942 -0.5 0  -0.4200000000002219 -0.5 0  -0.4100000000002497 -0.5 0  -0.4000000000002774 -0.5 0  -0.3900000000003052 -0.5 0  -0.3800000000003328 -0.5 0  -0.3700000000003606 -0.5 0  -0.3600000000003883 -0.5 0  -0.3500000000004161 -0.5 0  -0.3400000000004438 -0.5 0  -0.3300000000004716 -0.5 0  -0.3200000000004993 -0.5 0  -0.3100000000005271 -0.5 0  -0.3000000000005548 -0.5 0  -0.2900000000005825 -0.5 0  -0.2800000000006103 -0.5 0  -0.2700000000006381 -0.5 0  -0.2600000000006658 -0.5 0  -0.2500000000006935 -0.5 0  -0.2400000000007212 -0.5 0  -0.230000000000749 -0.5 0  -0.2200000000007767 -0.5 0  -0.2100000000008044 -0.5 0  -0.2000000000008322 -0.5 0  -0.19000000000086 -0.5 0  -0.1800000000008877 -0.5 0  -0.1700000000009154 -0.5 0  -0.1600000000009431 -0.5 0  -0.1500000000009709 -0.5 0  -0.1400000000009986 -0.5 0  -0.1300000000010264 -0.5 0  -0.1200000000010541 -0.5 0  -0.1100000000010818 -0.5 0  -0.1000000000011096 -0.5 0  -0.09000000000113734 -0.5 0  -0.08000000000116503 -0.5 0  -0.07000000000119283 -0.5 0  -0.06000000000122058 -0.5 0  -0.05000000000124827 -0.5 0  -0.04000000000127607 -0.5 0  -0.03000000000130376 -0.5 0  -0.02000000000133151 -0.5 0  -0.01000000000135925 -0.5 0  -1.376121439022882e-12 -0.5 0  0.009999999998640763 -0.5 0  0.01999999999866864 -0.5 0  0.02999999999869629 -0.5 0  0.03999999999872406 -0.5 0  0.04999999999875182 -0.5 0  0.05999999999877947 -0.5 0  0.06999999999880724 -0.5 0  0.079999999998835 -0.5 0  0.08999999999886266 -0.5 0  0.09999999999889042 -0.5 0  0.1099999999989182 -0.5 0  0.1199999999989459 -0.5 0  0.1299999999989737 -0.5 0  0.1399999999990014 -0.5 0  0.1499999999990291 -0.5 0  0.1599999999990568 -0.5 0  0.1699999999990847 -0.5 0  0.1799999999991124 -0.5 0  0.1899999999991401 -0.5 0  0.1999999999991678 -0.5 0  0.2099999999991955 -0.5 0  0.2199999999992234 -0.5 0  0.2299999999992511 -0.5 0  0.2399999999992788 -0.5 0  0.2499999999993066 -0.5 0  0.2599999999993342 -0.5 0  0.269999999999362 -0.5 0  0.2799999999993897 -0.5 0  0.2899999999994175 -0.5 0  0.2999999999994452 -0.5 0  0.3099999999994729 -0.5 0  0.3199999999995007 -0.5 0  0.3299999999995284 -0.5 0  0.3399999999995562 -0.5 0  0.3499999999995839 -0.5 0  0.3599999999996116 -0.5 0  0.3699999999996393 -0.5 0  0.379999999999667 -0.5 0  0.3899999999996949 -0.5 0  0.3999999999997226 -0.5 0  0.4099999999997503 -0.5 0  0.419999999999778 -0.5 0  0.4299999999998058 -0.5 0  0.4399999999998336 -0.5 0  0.4499999999998613 -0.5 0  0.4599999999998891 -0.5 0  0.4699999999999167 -0.5 0  0.4799999999999445 -0.5 0  0.4899999999999722 -0.5 0  0.5 -0.4902110204681464 0  0.5 -0.4804459958734807 0  0.5 -0.4707048677450883 0  0.5 -0.4609875815766065 0  0.5 -0.4512940759251849 0  0.5 -0.4416242912883993 0  0.5 -0.4319781678689807 0  0.5 -0.4223556545383647 0  0.5 -0.4127566896324213 0  0.5 -0.4031812128200121 0  0.5 -0.3936291733057916 0  0.5 -0.3841005081172659 0  0.5 -0.3745951585781932 0  0.5 -0.3651130778999337 0  0.5 -0.3556541993788045 0  0.5 -0.3462184677228392 0  0.5 -0.3368058273705318 0  0.5 -0.3274162224888609 0  0.5 -0.3180495969712945 0  0.5 -0.3087058944357755 0  0.5 -0.299385058222682 0  0.5 -0.2900870313927414 0  0.5 -0.2808117567250807 0  0.5 -0.2715591844628491 0  0.5 -0.2623292564012653 0  0.5 -0.253121909553727 0  0.5 -0.2439371050851549 0  0.5 -0.2347747685524501 0  0.5 -0.2256348634421331 0  0.5 -0.2165173209784076 0  0.5 -0.207422087829958 0  0.5 -0.1983491207029381 0  0.5 -0.1892983550950482 0  0.5 -0.1802697378305253 0  0.5 -0.1712632154965152 0  0.5 -0.1622787344187354 0  0.5 -0.1533162406595534 0  0.5 -0.1443756800160514 0  0.5 -0.1354569980180493 0  0.5 -0.1265601399261414 0  0.5 -0.1176850622761093 0  0.5 -0.1088317009011999 0  0.5 -0.09166666666668973 0  0.5 -0.08333333333337943 0  0.5 -0.07500000000006915 0  0.5 -0.06666666666675886 0  0.5 -0.05833333333344858 0  0.5 -0.05000000000013693 0  0.5 -0.04166666666678191 0  0.5 -0.03333333333342643 0  0.5 -0.02500000000006916 0  0.5 -0.01666666666671188 0  0.5 -0.00833333333335548 0  0.5 0.008333333333318314 0  0.5 0.01666666666663358 0  0.5 0.02499999999994162 0  0.5 0.03333333333325101 0  0.5 0.04166666666655769 0  0.5 0.04999999999986843 0  0.5 0.05833333333322258 0  0.5 0.06666666666657715 0  0.5 0.07499999999993352 0  0.5 0.08333333333328992 0  0.5 0.09166666666664541 0  0.5 0.1088317009011616 0  0.5 0.1176850622760307 0  0.5 0.1265601399260203 0  0.5 0.1354569980178909 0  0.5 0.1443756800158549 0  0.5 0.153316240659315 0  0.5 0.1622787344184454 0  0.5 0.1712632154961752 0  0.5 0.1802697378301332 0  0.5 0.1892983550946039 0  0.5 0.1983491207024433 0  0.5 0.2074220878294123 0  0.5 0.216517320977811 0  0.5 0.2256348634414833 0  0.5 0.2347747685517479 0  0.5 0.2439371050844009 0  0.5 0.2531219095529224 0  0.5 0.2623292564004089 0  0.5 0.2715591844619371 0  0.5 0.2808117567241139 0  0.5 0.290087031391723 0  0.5 0.2993850582216101 0  0.5 0.3087058944347426 0  0.5 0.3180495969703129 0  0.5 0.3274162224879299 0  0.5 0.3368058273696494 0  0.5 0.3462184677220051 0  0.5 0.3556541993780186 0  0.5 0.3651130778991989 0  0.5 0.3745951585775107 0  0.5 0.3841005081166359 0  0.5 0.3936291733052134 0  0.5 0.4031812128194852 0  0.5 0.412756689631945 0  0.5 0.4223556545379392 0  0.5 0.431978167868607 0  0.5 0.4416242912880781 0  0.5 0.4512940759249164 0  0.5 0.4609875815763912 0  0.5 0.4707048677449264 0  0.5 0.4804459958733726 0  0.5 0.4902110204680924 0  0.4900000000000277 0.5 0  0.4800000000000555 0.5 0  0.4700000000000832 0.5 0  0.4600000000001109 0.5 0  0.4500000000001387 0.5 0  0.4400000000001664 0.5 0  0.4300000000001942 0.5 0  0.4200000000002219 0.5 0  0.4100000000002497 0.5 0  0.4000000000002774 0.5 0  0.3900000000003052 0.5 0  0.3800000000003328 0.5 0  0.3700000000003606 0.5 0  0.3600000000003883 0.5 0  0.3500000000004161 0.5 0  0.3400000000004438 0.5 0  0.3300000000004716 0.5 0  0.3200000000004993 0.5 0  0.3100000000005271 0.5 0  0.3000000000005548 0.5 0  0.2900000000005825 0.5 0  0.2800000000006103 0.5 0  0.2700000000006381 0.5 0  0.2600000000006658 0.5 0  0.2500000000006935 0.5 0  0.2400000000007212 0.5 0  0.230000000000749 0.5 0  0.2200000000007767 0.5 0  0.2100000000008044 0.5 0  0.2000000000008322 0.5 0  0.19000000000086 0.5 0  0.1800000000008877 0.5 0  0.1700000000009154 0.5 0  0.1600000000009431 0.5 0  0.1500000000009709 0.5 0  0.1400000000009986 0.5 0  0.1300000000010264 0.5 0  0.1200000000010541 0.5 0  0.1100000000010818 0.5 0  0.1000000000011096 0.5 0  0.09000000000113734 0.5 0  0.08000000000116503 0.5 0  0.07000000000119283 0.5 0  0.06000000000122058 0.5 0  0.05000000000124827 0.5 0  0.04000000000127607 0.5 0  0.03000000000130376 0.5 0  0.02000000000133151 0.5 0  0.01000000000135925 0.5 0  1.376121439022882e-12 0.5 0  -0.009999999998640763 0.5 0  -0.01999999999866864 0.5 0  -0.02999999999869629 0.5 0  -0.03999999999872406 0.5 0  -0.04999999999875182 0.5 0  -0.05999999999877947 0.5 0  -0.06999999999880724 0.5 0  -0.079999999998835 0.5 0  -0.08999999999886266 0.5 0  -0.09999999999889042 0.5 0  -0.1099999999989182 0.5 0  -0.1199999999989459 0.5 0  -0.1299999999989737 0.5 0  -0.1399999999990014 0.5 0  -0.1499999999990291 0.5 0  -0.1599999999990568 0.5 0  -0.1699999999990847 0.5 0  -0.1799999999991124 0.5 0  -0.1899999999991401 0.5 0  -0.1999999999991678 0.5 0  -0.2099999999991955 0.5 0  -0.2199999999992234 0.5 0  -0.2299999999992511 0.5 0  -0.2399999999992788 0.5 0  -0.2499999999993066 0.5 0  -0.2599999999993342 0.5 0  -0.269999999999362 0.5 0  -0.2799999999993897 0.5 0  -0.2899999999994175 0.5 0  -0.2999999999994452 0.5 0  -0.3099999999994729 0.5 0  -0.3199999999995007 0.5 0  -0.3299999999995284 0.5 0  -0.3399999999995562 0.5 0  -0.3499999999995839 0.5 0  -0.3599999999996116 0.5 0  -0.3699999999996393 0.5 0  -0.379999999999667 0.5 0  -0.3899999999996949 0.5 0  -0.3999999999997226 0.5 0  -0.4099999999997503 0.5 0  -0.419999999999778 0.5 0  -0.4299999999998058 0.5 0  -0.4399999999998336 0.5 0  -0.4499999999998613 0.5 0  -0.4599999999998891 0.5 0  -0.4699999999999167 0.5 0  -0.4799999999999445 0.5 0  -0.4899999999999722 0.5 0  -0.5 0.4902110204681464 0  -0.5 0.4804459958734807 0  -0.5 0.4707048677450883 0  -0.5 0.4609875815766065 0  -0.5 0.4512940759251849 0  -0.5 0.4416242912883993 0  -0.5 0.4319781678689807 0  -0.5 0.4223556545383647 0  -0.5 0.4127566896324213 0  -0.5 0.4031812128200121 0  -0.5 0.3936291733057916 0  -0.5 0.3841005081172659 0  -0.5 0.3745951585781932 0  -0.5 0.3651130778999337 0  -0.5 0.3556541993788045 0  -0.5 0.3462184677228392 0  -0.5 0.3368058273705318 0  -0.5 0.3274162224888609 0  -0.5 0.3180495969712945 0  -0.5 0.3087058944357755 0  -0.5 0.299385058222682 0  -0.5 0.2900870313927414 0  -0.5 0.2808117567250807 0  -0.5 0.2715591844628491 0  -0.5 0.2623292564012653 0  -0.5 0.253121909553727 0  -0.5 0.2439371050851549 0  -0.5 0.2347747685524501 0  -0.5 0.2256348634421331 0  -0.5 0.2165173209784076 0  -0.5 0.207422087829958 0  -0.5 0.1983491207029381 0  -0.5 0.1892983550950482 0  -0.5 0.1802697378305253 0  -0.5 0.1712632154965152 0  -0.5 0.1622787344187354 0  -0.5 0.1533162406595534 0  -0.5 0.1443756800160514 0  -0.5 0.1354569980180493 0  -0.5 0.1265601399261414 0  -0.5 0.1176850622761093 0  -0.5 0.1088317009011999 0  -0.5 0.09167500000001694 0  -0.5 0.08335000000003931 0  -0.5 0.07502500000006167 0  -0.5 0.06670000000008947 0  -0.5 0.05837500000011001 0  -0.5 0.0500500000001328 0  -0.5 0.0417250000001127 0  -0.5 0.03340000000008944 0  -0.5 0.02507500000006573 0  -0.5 0.01675000000004653 0  -0.5 0.008425000000027341 
[...]
<PointData  Vectors="f_20"> 
<DataArray  type="Float64"  Name="f_20"  NumberOfComponents="3" format="ascii">-4.0142750744666487e-04 1.3496449697604316e-03 0.0000000000000000e+00  0.0000000000000000e+00 0.0000000000000000e+00 0.0000000000000000e+00  0.0000000000000000e+00 0.0000000000000000e+00 0.0000000000000000e+00  -7.6720088051640903e-04 1.4055107950321655e-03 0.0000000000000000e+00  -5.5606979919261602e-04 2.8000000000000004e-03 0.0000000000000000e+00  1.8408321890594980e-04 2.8000000000000004e-03 0.0000000000000000e+00  -1.8990452297063906e-04 2.9366015549707847e-03 0.0000000000000000e+00  -1.4800430607485502e-04 -8.0363574331828843e-05 0.0000000000000000e+00  -7.5165845222974973e-04 1.6271326690529071e-03 0.0000000000000000e+00  -7.2595227614382827e-04 1.1889343385057768e-03 0.0000000000000000e+00  -8.7985410044692447e-05 -7.9702275227921458e-05 0.0000000000000000e+00  -9.2486683193528614e-05 2.9361685484443302e-03 0.0000000000000000e+00  0.0000000000000000e+00 0.0000000000000000e+00 0.0000000000000000e+00  0.0000000000000000e+00 0.0000000000000000e+00 0.0000000000000000e+00  0.0000000000000000e+00 0.0000000000000000e+00 0.0000000000000000e+00  0.0000000000000000e+00 0.0000000000000000e+00 0.0000000000000000e+00  0.0000000000000000e+00 0.0000000000000000e+00 0.0000000000000000e+00  0.0000000000000000e+00 0.0000000000000000e+00 0.0000000000000000e+00  0.0000000000000000e+00 0.0000000000000000e+00 0.0000000000000000e+00  0.0000000000000000e+00 0.0000000000000000e+00 0.0000000000000000e+00  0.0000000000000000e+00 0.0000000000000000e+00 0.0000000000000000e+00  0.0000000000000000e+00 0.0000000000000000e+00 0.0000000000000000e+00  0.0000000000000000e+00 0.0000000000000000e+00 0.0000000000000000e+00  0.0000000000000000e+00 0.0000000000000000e+00 0.0000000000000000e+00  0.0000000000000000e+00 0.0000000000000000e+00 0.0000000000000000e+00  0.0000000000000000e+00 0.0000000000000000e+00 0.0000000000000000e+00  0.0000000000000000e+00 0.0000000000000000e+00 0.0000000000000000e+00  0.0000000000000000e+00 0.0000000000000000e+00 0.0000000000000000e+00  0.0000000000000000e+00 0.0000000000000000e+00 0.0000000000000000e+00  0.0000000000000000e+00 0.0000000000000000e+00 0.0000000000000000e+00  0.0000000000000000e+00 0.0000000000000000e+00 0.0000000000000000e+00  0.0000000000000000e+00 0.0000000000000000e+00 0.0000000000000000e+00  0.0000000000000000e+00 0.0000000000000000e+00 0.0000000000000000e+00  0.0000000000000000e+00 0.0000000000000000e+00 0.0000000000000000e+00  0.0000000000000000e+00 0.0000000000000000e+00 0.0000000000000000e+00  0.0000000000000000e+00 0.0000000000000000e+00 0.0000000000000000e+00  0.0000000000000000e+00 0.0000000000000000e+00 0.0000000000000000e+00  0.0000000000000000e+00 0.0000000000000000e+00 0.0000000000000000e+00  0.0000000000000000e+00 0.0000000000000000e+00 0.0000000000000000e+00  0.0000000000000000e+00 0.0000000000000000e+00 0.0000000000000000e+00  0.0000000000000000e+00 0.0000000000000000e+00 0.0000000000000000e+00  0.0000000000000000e+00 0.0000000000000000e+00 0.0000000000000000e+00  0.0000000000000000e+00 0.0000000000000000e+00 0.0000000000000000e+00  0.0000000000000000e+00 0.0000000000000000e+00 0.0000000000000000e+00  0.0000000000000000e+00 0.0000000000000000e+00 0.0000000000000000e+00  0.0000000000000000e+00 0.0000000000000000e+00 0.0000000000000000e+00  0.0000000000000000e+00 0.0000000000000000e+00 0.0000000000000000e+00  0.0000000000000000e+00 0.0000000000000000e+00 0.0000000000000000e+00  0.0000000000000000e+00 0.0000000000000000e+00 0.0000000000000000e+00  0.0000000000000000e+00 0.0000000000000000e+00 0.0000000000000000e+00  0.0000000000000000e+00 0.0000000000000000e+00 0.0000000000000000e+00  0.0000000000000000e+00 0.0000000000000000e+00 0.0000000000000000e+00  0.0000000000000000e+00 0.0000000000000000e+00 0.0000000000000000e+00  0.0000000000000000e+00 0.0000000000000000e+00 0.0000000000000000e+00  0.0000000000000000e+00 0.0000000000000000e+00 0.0000000000000000e+00  0.0000000000000000e+00 0.0000000000000000e+00 0.0000000000000000e+00  0.0000000000000000e+00 0.0000000000000000e+00 0.0000000000000000e+00  0.0000000000000000e+00 0.0000000000000000e+00 0.0000000000000000e+00  0.0000000000000000e+00 0.0000000000000000e+00 0.0000000000000000e+00  0.0000000000000000e+00 0.0000000000000000e+00 0.0000000000000000e+00  0.0000000000000000e+00 0.0000000000000000e+00 0.0000000000000000e+00  0.0000000000000000e+00 0.0000000000000000e+00 0.0000000000000000e+00  0.0000000000000000e+00 0.0000000000000000e+00 0.0000000000000000e+00  0.0000000000000000e+00 0.0000000000000000e+00 0.0000000000000000e+00  0.0000000000000000e+00 0.0000000000000000e+00 0.0000000000000000e+00  0.0000000000000000e+00 0.0000000000000000e+00 0.0000000000000000e+00  0.0000000000000000e+00 0.0000000000000000e+00 0.0000000000000000e+00  0.0000000000000000e+00 0.0000000000000000e+00 0.0000000000000000e+00  0.0000000000000000e+00 0.0000000000000000e+00 0.0000000000000000e+00  0.0000000000000000e+00 0.0000000000000000e+00 0.0000000000000000e+00  0.0000000000000000e+00 0.0000000000000000e+00 0.0000000000000000e+00  0.0000000000000000e+00 0.0000000000000000e+00 0.0000000000000000e+00  0.0000000000000000e+00 0.0000000000000000e+00 0.0000000000000000e+00  0.0000000000000000e+00 0.0000000000000000e+00 0.0000000000000000e+00  0.0000000000000000e+00 0.0000000000000000e+00 0.0000000000000000e+00  0.0000000000000000e+00 0.0000000000000000e+00 0.0000000000000000e+00  0.0000000000000000e+00 0.0000000000000000e+00 0.0000000000000000e+00  0.0000000000000000e+00 0.0000000000000000e+00 0.0000000000000000e+00  0.0000000000000000e+00 0.0000000000000000e+00 0.0000000000000000e+00  0.0000000000000000e+00 0.0000000000000000e+00 0.0000000000000000e+00  0.0000000000000000e+00 0.0000000000000000e+00 0.0000000000000000e+00  0.0000000000000000e+00 0.0000000000000000e+00 0.0000000000000000e+00  0.0000000000000000e+00 0.0000000000000000e+00 0.0000000000000000e+00  0.0000000000000000e+00 0.0000000000000000e+00 0.0000000000000000e+00  0.0000000000000000e+00 0.0000000000000000e+00 0.0000000000000000e+00  0.0000000000000000e+00 0.0000000000000000e+00 0.0000000000000000e+00  0.0000000000000000e+00 0.0000000000000000e+00 0.0000000000000000e+00  0.0000000000000000e+00 0.0000000000000000e+00 0.0000000000000000e+00  0.0000000000000000e+00 0.0000000000000000e+00 0.0000000000000000e+00  0.0000000000000000e+00 0.0000000000000000e+00 0.0000000000000000e+00  0.0000000000000000e+00 0.0000000000000000e+00 0.0000000000000000e+00  0.0000000000000000e+00 0.0000000000000000e+00 0.0000000000000000e+00  0.0000000000000000e+00 0.0000000000000000e+00 0.0000000000000000e+00  0.0000000000000000e+00 0.0000000000000000e+00 0.0000000000000000e+00  0.0000000000000000e+00 0.0000000000000000e+00 0.0000000000000000e+00  0.0000000000000000e+00 0.0000000000000000e+00 0.0000000000000000e+00  0.0000000000000000e+00 0.0000000000000000e+00 0.0000000000000000e+00  0.0000000000000000e+00 0.0000000000000000e+00 0.0000000000000000e+00  0.0000000000000000e+00 0.0000000000000000e+00 0.0000000000000000e+00  0.0000000000000000e+00 0.0000000000000000e+00 0.0000000000000000e+00  0.0000000000000000e+00 0.0000000000000000e+00 0.0000000000000000e+00  0.0000000000000000e+00 0.0000000000000000e+00 0.0000000000000000e+00  0.0000000000000000e+00 0.0000000000000000e+00 0.0000000000000000e+00  0.0000000000000000e+00 0.0000000000000000e+00 0.0000000000000000e+00  0.0000000000000000e+00 0.0000000000000000e+00 0.0000000000000000e+00  0.0000000000000000e+00 0.0000000000000000e+00 0.0000000000000000e+00  0.0000000000000000e+00 0.0000000000000000e+00 0.0000000000000000e+00  0.0000000000000000e+00 0.0000000000000000e+00 0.0000000000000000e+00  0.0000000000000000e+00 0.0000000000000000e+00 0.0000000000000000e+00  0.0000000000000000e+00 0.0000000000000000e+00 0.0000000000000000e+00  0.0000000000000000e+00 0.0000000000000000e+00 0.0000000000000000e+00  -6.8380788077828723e-05 7.1127698531343037e-05 0.0000000000000000e+00  -1.1281789152200024e-04 1.2249718374571700e-04 0.0000000000000000e+00  -1.4924619369154510e-04 1.6604819762523385e-04 0.0000000000000000e+00  -1.8134029932401866e-04 2.0522583115595221e-04 0.0000000000000000e+00  -2.1014329997211126e-04 2.4137479837004814e-04 0.0000000000000000e+00  -2.3656466376101846e-04 2.7550869186687726e-04 0.0000000000000000e+00  -2.6133831147093922e-04 3.0811716462656353e-04 0.0000000000000000e+00  -2.8412775348156334e-04 3.3966540857088660e-04 0.0000000000000000e+00  -3.0553835528809349e-04 3.7034600432560337e-04 0.0000000000000000e+00  -3.2603093701741466e-04 4.0017170806573452e-04 0.0000000000000000e+00  -3.4540110577487850e-04 4.2949002428658125e-04 0.0000000000000000e+00  -3.6397516503950924e-04 4.5811530640614632e-04 0.0000000000000000e+00  -3.8164092921793338e-04 4.8644271377300561e-04 0.0000000000000000e+00  -3.9876243723173410e-04 5.1415039533001048e-04 0.0000000000000000e+00  -4.1522061789482249e-04 5.4161555412050909e-04 0.0000000000000000e+00  -4.3127184733428542e-04 5.6863579724851217e-04 0.0000000000000000e+00  -4.4667362618579508e-04 5.9532011592730940e-04 0.0000000000000000e+00  -4.6165513789332837e-04 6.2161296351941596e-04 0.0000000000000000e+00  -4.7630093398503919e-04 6.4770969285157191e-04 0.0000000000000000e+00  -4.9047086036393213e-04 6.7340580085810192e-04 0.0000000000000000e+00  -5.0428001385955463e-04 6.9883543176487079e-04 0.0000000000000000e+00  -5.1774101714484799e-04 7.2400052969579637e-04 0.0000000000000000e+00  -5.3088153621355476e-04 7.4886315012698225e-04 0.0000000000000000e+00  -5.4369488545298931e-04 7.7345718358866084e-04 0.0000000000000000e+00  -5.5619669587184985e-04 7.9773769738237079e-04 0.0000000000000000e+00  -5.6838650787241756e-04 8.2172867536977809e-04 0.0000000000000000e+00  -5.8028331073386563e-04 8.4538705051653341e-04 0.0000000000000000e+00  -5.9195363911770515e-04 8.6888046652402518e-04 0.0000000000000000e+00  -6.0322122767789176e-04 8.9205091966588178e-04 0.0000000000000000e+00  -6.1417918288258328e-04 9.1493739247128995e-04 0.0000000000000000e+00  -6.2483898770832253e-04 9.3758259514179637e-04 0.0000000000000000e+00  -6.3521891316586769e-04 9.5991337017070394e-04 0.0000000000000000e+00  -6.4523140353558875e-04 9.8198045081888778e-04 0.0000000000000000e+00  -6.5495524273986925e-04 1.0037371671929613e-03 0.0000000000000000e+00  -6.6434219218028498e-04 1.0253053806257928e-03 0.0000000000000000e+00  -6.7332739907683390e-04 1.0465997772501720e-03 0.0000000000000000e+00  -6.8197662498393303e-04 1.0676471594839030e-03 0.0000000000000000e+00  -6.9029673062896387e-04 1.0883722000306567e-03 0.0000000000000000e+00  -6.9818049679478051e-04 1.1089360986920674e-03 0.0000000000000000e+00  -7.0573758773892937e-04 1.1292432352031829e-03 0.0000000000000000e+00  -7.1286059948144219e-04 1.1493756349446453e-03 0.0000000000000000e+00  -7.1960683045110916e-04 1.1692187814677205e-03 0.0000000000000000e+00  -7.3150824343955407e-04 1.2073788618899392e-03 0.0000000000000000e+00  -7.3673157290657897e-04 1.2256642548153568e-03 0.0000000000000000e+00  -7.4155734879339011e-04 1.2439291665699904e-03 0.0000000000000000e+00  -7.4601549796260880e-04 1.2620165462720343e-03 0.0000000000000000e+00  -7.5010281436240921e-04 1.2801210845094298e-03 0.0000000000000000e+00  -7.5373803787357038e-04 1.2981782028011230e-03 0.0000000000000000e+00  -7.5701505628731312e-04 1.3160682005585343e-03 0.0000000000000000e+00  -7.5987516491216847e-04 1.3339702822472920e-03 0.0000000000000000e+00  -7.6233432286758145e-04 1.3518717378507546e-03 0.0000000000000000e+00  -7.6431401235482939e-04 1.3697884430875313e-03 0.0000000000000000e+00  -7.6596360722915925e-04 1.3876174496001521e-03 0.0000000000000000e+00  -7.6797355268130494e-04 1.4234365351516495e-03 0.0000000000000000e+00  -7.6836291630829332e-04 1.4413863901100953e-03 0.0000000000000000e+00  -7.6836778455140306e-04 1.4594686760220786e-03 0.0000000000000000e+00  -7.6796975708755483e-04 1.4775413014117636e-03 0.0000000000000000e+00  -7.6719631336703733e-04 1.4957922806474867e-03 0.0000000000000000e+00  -7.6602973746509864e-04 1.5141683131911401e-03 0.0000000000000000e+00  -7.6446342712014692e-04 1.5325731956893941e-03 0.0000000000000000e+00  -7.6258316881335560e-04 1.5511762786137734e-03 0.0000000000000000e+00  -7.6037340408680054e-04 1.5699469845053607e-03 0.0000000000000000e+00  -7.5774313094998877e-04 1.5888703940211584e-03 0.0000000000000000e+00  -7.5485543881725003e-04 1.6078824031751282e-03 0.0000000000000000e+00  -7.4791112759942633e-04 1.6477798243478875e-03 0.0000000000000000e+00  -7.4384610512089771e-04 1.6686605956817151e-03 0.0000000000000000e+00  -7.3949871028079653e-04 1.6899019836771375e-03 0.0000000000000000e+00  -7.3483613774636748e-04 1.7113919479781394e-03 0.0000000000000000e+00  -7.2999265695333077e-04 1.7332288658232456e-03 0.0000000000000000e+00  -7.2481397248092385e-04 1.7553326477389032e-03 0.0000000000000000e+00  -7.1946050716000258e-04 1.7778225296469440e-03 0.0000000000000000e+00  -7.1388616682434736e-04 1.8006612873028426e-03 0.0000000000000000e+00  -7.0813352456935833e-04 1.8238555946533583e-03 0.0000000000000000e+00  -7.0218125451051831e-04 1.8473560150646441e-03 0.0000000000000000e+00  -6.9616391381877062e-04 1.8712367199342612e-03 0.0000000000000000e+00  -6.8999231383557336e-04 1.8954729987917685e-03 0.0000000000000000e+00  -6.8376307964293276e-04 1.9200763112618114e-03 0.0000000000000000e+00  -6.7747780652700697e-04 1.9450521547234238e-03 0.0000000000000000e+00  -6.7113934804866873e-04 1.9703968263987616e-03 0.0000000000000000e+00  -6.6474565575376293e-04 1.9960865005748010e-03 0.0000000000000000e+00  -6.5835633602182313e-04 2.0220986909116070e-03 0.0000000000000000e+00  -6.5203181692362452e-04 2.0484870870811950e-03 0.0000000000000000e+00  -6.4576311997634769e-04 2.0752134629254703e-03 0.0000000000000000e+00  -6.3955803191237382e-04 2.1022914622478429e-03 0.0000000000000000e+00  -6.3344532609041135e-04 2.1297262972626834e-03 0.0000000000000000e+00  -6.2740753866074249e-04 2.1575095959302988e-03 0.0000000000000000e+00  -6.2156644955510282e-04 2.1855805346077516e-03 0.0000000000000000e+00  -6.1582109100628607e-04 2.2140031075879993e-03 0.0000000000000000e+00  -6.1029183508489208e-04 2.2426927007515728e-03 0.0000000000000000e+00  -6.0491804843484584e-04 2.2717203720221254e-03 0.0000000000000000e+00  -5.9975403487719443e-04 2.3010421850016404e-03 0.0000000000000000e+00  -5.9482158184328800e-04 2.3305953770805508e-03 0.0000000000000000e+00  -5.9013479235232543e-04 2.3604186730577723e-03 0.0000000000000000e+00  -5.8566696409611489e-04 2.3905562853502389e-03 0.0000000000000000e+00  -5.8152116216193621e-04 2.4208578186249823e-03 0.0000000000000000e+00  -5.7759807000351397e-04 2.4514560285189141e-03 0.0000000000000000e+00  -5.7399703542781761e-04 2.4822629828132603e-03 0.0000000000000000e+00  -5.7068918172921142e-04 2.5133510809965359e-03 0.0000000000000000e+00  -5.6770134812959101e-04 2.5445520010708156e-03 0.0000000000000000e+00  -5.6502627444707612e-04 2.5759404365084297e-03 0.0000000000000000e+00  -5.6270075086302482e-04 2.6075504902864201e-03 0.0000000000000000e+00  -5.6071447453206861e-04 2.6392845632518367e-03 0.0000000000000000e+00  -5.5908179829510245e-04 2.6711880960000193e-03 0.0000000000000000e+00  -5.5776693205847978e-04 2.7032362950781702e-03 0.0000000000000000e+00  -5.5692990618249325e-04 2.7354023548189083e-03 0.0000000000000000e+00  -5.5631694449636757e-04 2.7676495141546725e-03 0.0000000000000000e+00  -5.4205311405940235e-04 2.8000000000000004e-03 0.0000000000000000e+00  -5.2808868186664942e-04 2.8000000000000004e-03 0.0000000000000000e+00  -5.1426877587478490e-04 2.8000000000000004e-03 0.0000000000000000e+00  -5.0053595807217832e-04 2.8000000000000004e-03 0.0000000000000000e+00  -4.8684687873223236e-04 2.8000000000000004e-03 0.0000000000000000e+00  -4.7329623761007333e-04 2.8000000000000004e-03 0.0000000000000000e+00  -4.5974549369388402e-04 2.8000000000000004e-03 0.0000000000000000e+00  -4.4621311928969866e-04 2.8000000000000004e-03 0.0000000000000000e+00  -4.3267193847379957e-04 2.8000000000000004e-03 0.0000000000000000e+00  -4.1920839573344971e-04 2.8000000000000004e-03 0.0000000000000000e+00  -4.0569747262941916e-04 2.8000000000000004e-03 0.0000000000000000e+00  -3.9217340649420044e-04 2.8000000000000004e-03 0.0000000000000000e+00  -3.7863009945459080e-04 2.8000000000000004e-03 0.0000000000000000e+00  -3.6506937042601146e-04 2.8000000000000004e-03 0.0000000000000000e+00  -3.5148484259903790e-04 2.8000000000000004e-03 0.0000000000000000e+00  -3.3784775663669878e-04 2.8000000000000004e-03 0.0000000000000000e+00  -3.2417801219002330e-04 2.8000000000000004e-03 0.0000000000000000e+00  -3.1047909307686756e-04 2.8000000000000004e-03 0.0000000000000000e+00  -2.9674975089601406e-04 2.8000000000000004e-03 0.0000000000000000e+00  -2.8299130484763966e-04 2.8000000000000004e-03 0.0000000000000000e+00  -2.6920746131841520e-04 2.8000000000000004e-03 0.0000000000000000e+00  -2.5540025997167789e-04 2.8000000000000004e-03 0.0000000000000000e+00  -2.4157895808666081e-04 2.8000000000000004e-03 0.0000000000000000e+00  -2.2775946857660291e-04 2.8000000000000004e-03 0.0000000000000000e+00  -2.1392548779588079e-04 2.8000000000000004e-03 0.0000000000000000e+00  -2.0010791711232289e-04 2.8000000000000004e-03 0.0000000000000000e+00  -1.8632270761898180e-04 2.8000000000000004e-03 0.0000000000000000e+00  -1.7255635185319117e-04 2.8000000000000004e-03 0.0000000000000000e+00  -1.5887205536529870e-04 2.8000000000000004e-03 0.0000000000000000e+00  -1.4524599178997782e-04 2.8000000000000004e-03 0.0000000000000000e+00  -1.3168584704193460e-04 2.8000000000000004e-03 0.0000000000000000e+00  -1.1823636616851563e-04 2.8000000000000004e-03 0.0000000000000000e+00  -1.0488824498402976e-04 2.8000000000000004e-03 0.0000000000000000e+00  -9.1625611566301579e-05 2.8000000000000004e-03 0.0000000000000000e+00  -7.8586022660517461e-05 2.8000000000000004e-03 0.0000000000000000e+00  -6.5669004857684456e-05 2.8000000000000004e-03 0.0000000000000000e+00  -5.2934011249956524e-05 2.8000000000000004e-03 0.0000000000000000e+00  -4.0400620991915401e-05 2.8000000000000004e-03 0.0000000000000000e+00  -2.8029815018227788e-05 2.8000000000000004e-03 0.0000000000000000e+00  -1.5938635572450991e-05 2.8000000000000004e-03 0.0000000000000000e+00  -4.1102926517226690e-06 2.8000000000000004e-03 0.0000000000000000e+00  7.4301930112062421e-06 2.8000000000000004e-03 0.0000000000000000e+00  1.8729713094274896e-05 2.8000000000000004e-03 0.0000000000000000e+00  2.9776535039962724e-05 2.8000000000000004e-03 0.0000000000000000e+00  4.0429629427487265e-05 2.8000000000000004e-03 0.0000000000000000e+00  5.0835708556942879e-05 2.8000000000000004e-03 0.0000000000000000e+00  6.0917719855387043e-05 2.8000000000000004e-03 0.0000000000000000e+00  7.0534204135668736e-05 2.8000000000000004e-03 0.0000000000000000e+00  7.9861045898869761e-05 2.8000000000000004e-03 0.0000000000000000e+00  8.8889254450185757e-05 2.8000000000000004e-03 0.0000000000000000e+00  9.7527997081630846e-05 2.8000000000000004e-03 0.0000000000000000e+00  1.0573575932323542e-04 2.8000000000000004e-03 0.0000000000000000e+00  1.1357675252056156e-04 2.8000000000000004e-03 0.0000000000000000e+00  1.2109375770851705e-04 2.8000000000000004e-03 0.0000000000000000e+00  1.2818721121111735e-04 2.8000000000000004e-03 0.0000000000000000e+00  1.3489257530241203e-04 2.8000000000000004e-03 0.0000000000000000e+00  1.4125290647708591e-04 2.8000000000000004e-03 0.0000000000000000e+00  1.4727832421575072e-04 2.8000000000000004e-03 0.0000000000000000e+00  1.5282863460552504e-04 2.8000000000000004e-03 0.0000000000000000e+00  1.5809457547502116e-04 2.8000000000000004e-03 0.0000000000000000e+00  1.6298145009619131e-04 2.8000000000000004e-03 0.0000000000000000e+00  1.6752055431111876e-04 2.8000000000000004e-03 0.0000000000000000e+00  1.7168263302934651e-04 2.8000000000000004e-03 0.0000000000000000e+00  1.7558491695927292e-04 2.8000000000000004e-03 0.0000000000000000e+00  1.7918839666668948e-04 2.8000000000000004e-03 0.0000000000000000